    2    2    1    1
  0.2001288E+02  0.3839590E-09  0.3839590E-09  0.3839590E-09  0.5000000E-15
  1.000000000000000E-004
  CAR 
 fcc Si                                  
    8   80    8
 
  0.5000000E+00  0.5000000E+00  0.5000000E+00  0.1250000E-01
   1       -3.797982
   2       -1.137362
   3        4.638060
   4        4.638060
   5        7.384032
   6        9.195047
   7        9.195047
   8       13.568273
 
  0.4736842E+00  0.4736842E+00  0.4736842E+00  0.1250000E-01
   1       -3.837198
   2       -1.080992
   3        4.643061
   4        4.643061
   5        7.391415
   6        9.200828
   7        9.200828
   8       13.577473
 
  0.4473684E+00  0.4473684E+00  0.4473684E+00  0.1250000E-01
   1       -3.945663
   2       -0.921105
   3        4.658070
   4        4.658070
   5        7.408988
   6        9.219799
   7        9.219799
   8       13.603429
 
  0.4210526E+00  0.4210526E+00  0.4210526E+00  0.1250000E-01
   1       -4.102849
   2       -0.678445
   3        4.682980
   4        4.682980
   5        7.437351
   6        9.246279
   7        9.246279
   8       13.643421
 
  0.3947368E+00  0.3947368E+00  0.3947368E+00  0.1250000E-01
   1       -4.288679
   2       -0.373754
   3        4.717677
   4        4.717677
   5        7.476664
   6        9.279658
   7        9.279658
   8       13.690752
 
  0.3684211E+00  0.3684211E+00  0.3684211E+00  0.1250000E-01
   1       -4.486606
   2       -0.021800
   3        4.762448
   4        4.762448
   5        7.527264
   6        9.316926
   7        9.316926
   8       13.732946
 
  0.3421053E+00  0.3421053E+00  0.3421053E+00  0.1250000E-01
   1       -4.687314
   2        0.364713
   3        4.816236
   4        4.816236
   5        7.588288
   6        9.351047
   7        9.351048
   8       13.989922
 
  0.3157895E+00  0.3157895E+00  0.3157895E+00  0.1250000E-01
   1       -4.883627
   2        0.779442
   3        4.880005
   4        4.880005
   5        7.659545
   6        9.378099
   7        9.378099
   8       13.656507
 
  0.2894737E+00  0.2894737E+00  0.2894737E+00  0.1250000E-01
   1       -5.071334
   2        1.217351
   3        4.953325
   4        4.953325
   5        7.740324
   6        9.389916
   7        9.389916
   8       13.357454
 
  0.2631579E+00  0.2631579E+00  0.2631579E+00  0.1250000E-01
   1       -5.247589
   2        1.674119
   3        5.034685
   4        5.034685
   5        7.829437
   6        9.376336
   7        9.376336
   8       12.979133
 
  0.2368421E+00  0.2368421E+00  0.2368421E+00  0.1250000E-01
   1       -5.410373
   2        2.146935
   3        5.123957
   4        5.123957
   5        7.926026
   6        9.330820
   7        9.330820
   8       12.545917
 
  0.2105263E+00  0.2105263E+00  0.2105263E+00  0.1250000E-01
   1       -5.558307
   2        2.631726
   3        5.220498
   4        5.220498
   5        8.027330
   6        9.253547
   7        9.253547
   8       12.087966
 
  0.1842105E+00  0.1842105E+00  0.1842105E+00  0.1250000E-01
   1       -5.690401
   2        3.126399
   3        5.321143
   4        5.321143
   5        8.131515
   6        9.145148
   7        9.145148
   8       11.618173
 
  0.1578947E+00  0.1578947E+00  0.1578947E+00  0.1250000E-01
   1       -5.806097
   2        3.623557
   3        5.424273
   4        5.424273
   5        8.231443
   6        9.014046
   7        9.014046
   8       11.141434
 
  0.1315789E+00  0.1315789E+00  0.1315789E+00  0.1250000E-01
   1       -5.904631
   2        4.118454
   3        5.526727
   4        5.526727
   5        8.325850
   6        8.871425
   7        8.871425
   8       10.670965
 
  0.1052632E+00  0.1052632E+00  0.1052632E+00  0.1250000E-01
   1       -5.985637
   2        4.601068
   3        5.625467
   4        5.625467
   5        8.406792
   6        8.729846
   7        8.729846
   8       10.219132
 
  0.7894737E-01  0.7894737E-01  0.7894737E-01  0.1250000E-01
   1       -6.048964
   2        5.054401
   3        5.712326
   4        5.712326
   5        8.460543
   6        8.601794
   7        8.601794
   8        9.807586
 
  0.5263158E-01  0.5263158E-01  0.5263158E-01  0.1250000E-01
   1       -6.094336
   2        5.449177
   3        5.781910
   4        5.781910
   5        8.471191
   6        8.499222
   7        8.499222
   8        9.476056
 
  0.2631579E-01  0.2631579E-01  0.2631579E-01  0.1250000E-01
   1       -6.121583
   2        5.735575
   3        5.827339
   4        5.827339
   5        8.432615
   6        8.432616
   7        8.436788
   8        9.272028
 
  0.0000000E+00  0.0000000E+00  0.0000000E+00  0.1250000E-01
   1       -6.130670
   2        5.843166
   3        5.843181
   4        5.843181
   5        8.409471
   6        8.409486
   7        8.409487
   8        9.207862
 
  0.0000000E+00  0.0000000E+00  0.0000000E+00  0.1250000E-01
   1       -6.130670
   2        5.843166
   3        5.843181
   4        5.843181
   5        8.409471
   6        8.409486
   7        8.409487
   8        9.207862
 
  0.0000000E+00  0.2631579E-01  0.2631579E-01  0.1250000E-01
   1       -6.118551
   2        5.760806
   3        5.791102
   4        5.791112
   5        8.379354
   6        8.476546
   7        8.476557
   8        9.288319
 
  0.0000000E+00  0.5263158E-01  0.5263158E-01  0.1250000E-01
   1       -6.082171
   2        5.535044
   3        5.649481
   4        5.649490
   5        8.292911
   6        8.663091
   7        8.663102
   8        9.504289
 
  0.0000000E+00  0.7894737E-01  0.7894737E-01  0.1250000E-01
   1       -6.021659
   2        5.208418
   3        5.447530
   4        5.447540
   5        8.160164
   6        8.938302
   7        8.938314
   8        9.796758
 
  0.0000000E+00  0.1052632E+00  0.1052632E+00  0.1250000E-01
   1       -5.936982
   2        4.821670
   3        5.215632
   4        5.215642
   5        7.994688
   6        9.274123
   7        9.274137
   8       10.088940
 
  0.0000000E+00  0.1315789E+00  0.1315789E+00  0.1250000E-01
   1       -5.828329
   2        4.398438
   3        4.971293
   4        4.971303
   5        7.809289
   6        9.652546
   7        9.652561
   8       10.271086
 
  0.0000000E+00  0.1578947E+00  0.1578947E+00  0.1250000E-01
   1       -5.695879
   2        3.952732
   3        4.726201
   4        4.726210
   5        7.614733
   6       10.058328
   7       10.058339
   8       10.222098
 
  0.0000000E+00  0.1842105E+00  0.1842105E+00  0.1250000E-01
   1       -5.539841
   2        3.494385
   3        4.487745
   4        4.487754
   5        7.420200
   6        9.959284
   7       10.485445
   8       10.485456
 
  0.0000000E+00  0.2105263E+00  0.2105263E+00  0.1250000E-01
   1       -5.360438
   2        3.027623
   3        4.259285
   4        4.259294
   5        7.232568
   6        9.590734
   7       10.931094
   8       10.931107
 
  0.0000000E+00  0.2368421E+00  0.2368421E+00  0.1250000E-01
   1       -5.158064
   2        2.556068
   3        4.046431
   4        4.046440
   5        7.056833
   6        9.188110
   7       11.384442
   8       11.384449
 
  0.0000000E+00  0.2631579E+00  0.2631579E+00  0.1250000E-01
   1       -4.933045
   2        2.082882
   3        3.850146
   4        3.850155
   5        6.897166
   6        8.790359
   7       11.849414
   8       11.849461
 
  0.0000000E+00  0.2894737E+00  0.2894737E+00  0.1250000E-01
   1       -4.685483
   2        1.609422
   3        3.671957
   4        3.671966
   5        6.757750
   6        8.411895
   7       12.323144
   8       12.323158
 
  0.0000000E+00  0.3157895E+00  0.3157895E+00  0.1250000E-01
   1       -4.416404
   2        1.137707
   3        3.512933
   4        3.512942
   5        6.640086
   6        8.061190
   7       12.811391
   8       12.811402
 
  0.0000000E+00  0.3421053E+00  0.3421053E+00  0.1250000E-01
   1       -4.126247
   2        0.668704
   3        3.373783
   4        3.373791
   5        6.546260
   6        7.743318
   7       13.302228
   8       13.302238
 
  0.0000000E+00  0.3684211E+00  0.3684211E+00  0.1250000E-01
   1       -3.815620
   2        0.204658
   3        3.255076
   4        3.255084
   5        6.476731
   6        7.458544
   7       13.794615
   8       13.794625
 
  0.0000000E+00  0.3947368E+00  0.3947368E+00  0.1250000E-01
   1       -3.485211
   2       -0.252804
   3        3.157383
   4        3.157392
   5        6.434221
   6        7.208988
   7       14.291130
   8       14.291140
 
  0.0000000E+00  0.4210526E+00  0.4210526E+00  0.1250000E-01
   1       -3.135884
   2       -0.702033
   3        3.080481
   4        3.080490
   5        6.420026
   6        6.994118
   7       14.788582
   8       14.788600
 
  0.0000000E+00  0.4473684E+00  0.4473684E+00  0.1250000E-01
   1       -2.768536
   2       -1.141263
   3        3.025836
   4        3.025845
   5        6.435451
   6        6.815621
   7       15.278873
   8       15.278883
 
  0.0000000E+00  0.4736842E+00  0.4736842E+00  0.1250000E-01
   1       -2.384276
   2       -1.569632
   3        2.992894
   4        2.992903
   5        6.481312
   6        6.669944
   7       15.726210
   8       15.726376
 
  0.0000000E+00  0.5000000E+00  0.5000000E+00  0.1250000E-01
   1       -1.984195
   2       -1.984194
   3        2.981940
   4        2.981948
   5        6.559207
   6        6.559224
   7       15.966057
   8       15.966070
 
  0.0000000E+00  0.5000000E+00  0.5000000E+00  0.1250000E-01
   1       -1.984195
   2       -1.984194
   3        2.981940
   4        2.981948
   5        6.559207
   6        6.559224
   7       15.966057
   8       15.966070
 
  0.1315789E-01  0.5065789E+00  0.5065789E+00  0.1250000E-01
   1       -1.984813
   2       -1.982555
   3        2.971455
   4        2.983166
   5        6.560614
   6        6.574731
   7       15.950123
   8       15.956954
 
  0.2631579E-01  0.5131579E+00  0.5131579E+00  0.1250000E-01
   1       -1.986692
   2       -1.977636
   3        2.940613
   4        2.986818
   5        6.564834
   6        6.620657
   7       15.900228
   8       15.930044
 
  0.3947368E-01  0.5197368E+00  0.5197368E+00  0.1250000E-01
   1       -1.989893
   2       -1.969439
   3        2.891125
   4        2.992903
   5        6.571864
   6        6.695341
   7       15.821757
   8       15.885971
 
  0.5263158E-01  0.5263158E+00  0.5263158E+00  0.1250000E-01
   1       -1.994515
   2       -1.957963
   3        2.825508
   4        3.001415
   5        6.581699
   6        6.796364
   7       15.719315
   8       15.826666
 
  0.6578947E-01  0.5328947E+00  0.5328947E+00  0.1250000E-01
   1       -2.000697
   2       -1.943211
   3        2.746696
   4        3.012345
   5        6.594331
   6        6.920918
   7       15.598159
   8       15.753968
 
  0.7894737E-01  0.5394737E+00  0.5394737E+00  0.1250000E-01
   1       -2.008617
   2       -1.925184
   3        2.657715
   4        3.025686
   5        6.609750
   6        7.066140
   7       15.462905
   8       15.669780
 
  0.9210526E-01  0.5460526E+00  0.5460526E+00  0.1250000E-01
   1       -2.018492
   2       -1.903883
   3        2.561454
   4        3.041424
   5        6.627944
   6        7.229336
   7       15.317158
   8       15.575979
 
  0.1052632E+00  0.5526316E+00  0.5526316E+00  0.1250000E-01
   1       -2.030574
   2       -1.879310
   3        2.460542
   4        3.059545
   5        6.648898
   6        7.408094
   7       15.163647
   8       15.474162
 
  0.1184211E+00  0.5592105E+00  0.5592105E+00  0.1250000E-01
   1       -2.045144
   2       -1.851468
   3        2.357313
   4        3.080032
   5        6.672595
   6        7.600342
   7       15.004416
   8       15.365695
 
  0.1315789E+00  0.5657895E+00  0.5657895E+00  0.1250000E-01
   1       -2.062421
   2       -1.820160
   3        2.253481
   4        3.102844
   5        6.699061
   6        7.804467
   7       14.835287
   8       15.250242
 
  0.1447368E+00  0.5723684E+00  0.5723684E+00  0.1250000E-01
   1       -2.082941
   2       -1.785777
   3        2.151466
   4        3.128006
   5        6.728182
   6        8.018710
   7       14.669369
   8       15.130879
 
  0.1578947E+00  0.5789474E+00  0.5789474E+00  0.1250000E-01
   1       -2.107113
   2       -1.748134
   3        2.052146
   4        3.155468
   5        6.759978
   6        8.240842
   7       14.501827
   8       15.008409
 
  0.1710526E+00  0.5855263E+00  0.5855263E+00  0.1250000E-01
   1       -2.134864
   2       -1.707105
   3        1.957542
   4        3.185304
   5        6.794753
   6        8.472614
   7       14.335278
   8       14.885939
 
  0.1842105E+00  0.5921053E+00  0.5921053E+00  0.1250000E-01
   1       -2.166843
   2       -1.662948
   3        1.868280
   4        3.217286
   5        6.831798
   6        8.710958
   7       14.166083
   8       14.756967
 
  0.1973684E+00  0.5986842E+00  0.5986842E+00  0.1250000E-01
   1       -2.203277
   2       -1.615557
   3        1.785328
   4        3.251473
   5        6.870650
   6        8.955534
   7       13.997191
   8       14.599590
 
  0.2105263E+00  0.6052632E+00  0.6052632E+00  0.1250000E-01
   1       -2.244428
   2       -1.564912
   3        1.709705
   4        3.287839
   5        6.912788
   6        9.205871
   7       13.829220
   8       14.426069
 
  0.2236842E+00  0.6118421E+00  0.6118421E+00  0.1250000E-01
   1       -2.290504
   2       -1.511030
   3        1.641961
   4        3.326337
   5        6.957415
   6        9.461258
   7       13.662365
   8       14.241713
 
  0.2368421E+00  0.6184211E+00  0.6184211E+00  0.1250000E-01
   1       -2.341515
   2       -1.453680
   3        1.582645
   4        3.366960
   5        7.005137
   6        9.721275
   7       13.498336
   8       14.065878
 
  0.2500000E+00  0.6250000E+00  0.6250000E+00  0.1250000E-01
   1       -2.397776
   2       -1.393344
   3        1.532083
   4        3.409590
   5        7.054586
   6        9.985024
   7       13.334264
   8       13.893805
 
  0.3750000E+00  0.7500000E+00  0.3750000E+00  0.1250000E-01
   1       -2.397776
   2       -1.393344
   3        1.532083
   4        3.409590
   5        7.054586
   6        9.985025
   7       13.334206
   8       13.892290
 
  0.3552632E+00  0.7105263E+00  0.3552632E+00  0.1250000E-01
   1       -2.596630
   2       -1.193103
   3        1.434510
   4        3.548912
   5        7.215585
   6       10.791594
   7       12.845506
   8       13.401195
 
  0.3355263E+00  0.6710526E+00  0.3355263E+00  0.1250000E-01
   1       -2.836220
   2       -0.964073
   3        1.417791
   4        3.704759
   5        7.396193
   6       11.584203
   7       12.382454
   8       12.978235
 
  0.3157895E+00  0.6315789E+00  0.3157895E+00  0.1250000E-01
   1       -3.105794
   2       -0.706483
   3        1.475493
   4        3.874997
   5        7.592689
   6       11.941647
   7       12.081734
   8       12.941186
 
  0.2960526E+00  0.5921053E+00  0.2960526E+00  0.1250000E-01
   1       -3.394479
   2       -0.420274
   3        1.597862
   4        4.056931
   5        7.801477
   6       11.523292
   7       11.855614
   8       12.638372
 
  0.2763158E+00  0.5526316E+00  0.2763158E+00  0.1250000E-01
   1       -3.691610
   2       -0.106488
   3        1.774887
   4        4.248050
   5        8.016956
   6       11.129703
   7       11.486662
   8       12.338152
 
  0.2565789E+00  0.5131579E+00  0.2565789E+00  0.1250000E-01
   1       -3.988492
   2        0.234692
   3        1.998055
   4        4.443406
   5        8.231618
   6       10.757978
   7       11.117773
   8       12.074638
 
  0.2368421E+00  0.4736842E+00  0.2368421E+00  0.1250000E-01
   1       -4.277762
   2        0.602868
   3        2.260385
   4        4.639768
   5        8.435734
   6       10.414184
   7       10.766903
   8       11.856155
 
  0.2171053E+00  0.4342105E+00  0.2171053E+00  0.1250000E-01
   1       -4.554418
   2        0.997772
   3        2.556450
   4        4.832923
   5        8.617014
   6       10.098011
   7       10.440634
   8       11.690705
 
  0.1973684E+00  0.3947368E+00  0.1973684E+00  0.1250000E-01
   1       -4.814969
   2        1.417781
   3        2.879297
   4        5.016781
   5        8.761658
   6        9.806698
   7       10.134755
   8       11.583257
 
  0.1776316E+00  0.3552632E+00  0.1776316E+00  0.1250000E-01
   1       -5.056068
   2        1.862210
   3        3.224380
   4        5.187163
   5        8.859074
   6        9.542734
   7        9.853529
   8       11.531459
 
  0.1578947E+00  0.3157895E+00  0.1578947E+00  0.1250000E-01
   1       -5.275747
   2        2.330709
   3        3.586894
   4        5.340292
   5        8.904846
   6        9.305665
   7        9.592691
   8       11.512999
 
  0.1381579E+00  0.2763158E+00  0.1381579E+00  0.1250000E-01
   1       -5.472414
   2        2.818903
   3        3.959132
   4        5.472320
   5        8.907548
   6        9.096243
   7        9.358211
   8       11.476963
 
  0.1184211E+00  0.2368421E+00  0.1184211E+00  0.1250000E-01
   1       -5.644908
   2        3.324692
   3        4.334160
   4        5.582922
   5        8.877421
   6        8.914473
   7        9.142371
   8       11.337406
 
  0.9868421E-01  0.1973684E+00  0.9868421E-01  0.1250000E-01
   1       -5.792089
   2        3.843487
   3        4.703006
   4        5.670618
   5        8.760438
   6        8.827760
   7        8.951364
   8       11.022614
 
  0.7894737E-01  0.1578947E+00  0.7894737E-01  0.1250000E-01
   1       -5.913363
   2        4.366013
   3        5.051306
   4        5.737602
   5        8.634054
   6        8.764727
   7        8.780778
   8       10.560899
 
  0.5921053E-01  0.1184211E+00  0.5921053E-01  0.1250000E-01
   1       -6.008177
   2        4.876542
   3        5.362797
   4        5.786143
   5        8.535850
   6        8.634338
   7        8.690522
   8       10.052290
 
  0.3947368E-01  0.7894737E-01  0.3947368E-01  0.1250000E-01
   1       -6.076182
   2        5.343033
   3        5.615414
   4        5.818625
   5        8.465661
   6        8.516566
   7        8.595012
   8        9.600031
 
  0.1973684E-01  0.3947368E-01  0.1973684E-01  0.1250000E-01
   1       -6.117037
   2        5.701657
   3        5.783917
   4        5.837167
   5        8.423532
   6        8.437669
   7        8.475931
   8        9.303660
 
  0.0000000E+00  0.0000000E+00  0.0000000E+00  0.1250000E-01
   1       -6.130670
   2        5.843166
   3        5.843181
   4        5.843181
   5        8.409471
   6        8.409486
   7        8.409487
   8        9.207858
