 vasp.5.2.12 26May11 complex 
 executed on             LinuxIFC date 2015.12.27  23:18:51
 running on    4 nodes
 distr:  one band on    1 nodes,    4 groups


--------------------------------------------------------------------------------------------------------


 INCAR:
 POTCAR:    PAW_PBE Si 05Jan2001                  
 POTCAR:    PAW_PBE Si 05Jan2001                  
   VRHFIN =Si: s2p2                                                             
   LEXCH  = PE                                                                  
   EATOM  =   103.0669 eV,    7.5752 Ry                                         
                                                                                
   TITEL  = PAW_PBE Si 05Jan2001                                                
   LULTRA =        F    use ultrasoft PP ?                                      
   IUNSCR =        1    unscreen: 0-lin 1-nonlin 2-no                           
   RPACOR =    1.500    partial core radius                                     
   POMASS =   28.085; ZVAL   =    4.000    mass and valenz                      
   RCORE  =    1.900    outmost cutoff radius                                   
   RWIGS  =    2.480; RWIGS  =    1.312    wigner-seitz radius (au A)           
   ENMAX  =  245.345; ENMIN  =  184.009 eV                                      
   ICORE  =        2    local potential                                         
   LCOR   =        T    correct aug charges                                     
   LPAW   =        T    paw PP                                                  
   EAUG   =  322.069                                                            
   DEXC   =    0.000                                                            
   RMAX   =    1.950    core radius for proj-oper                               
   RAUG   =    1.300    factor for augmentation sphere                          
   RDEP   =    1.993    radius for radial grids                                 
   RDEPT  =    1.837    core radius for aug-charge                              
                                                                                
   Atomic configuration                                                         
    6 entries                                                                   
     n  l   j            E        occ.                                          
     1  0  0.50     -1785.8828   2.0000                                         
     2  0  0.50      -139.4969   2.0000                                         
     2  1  1.50       -95.5546   6.0000                                         
     3  0  0.50       -10.8127   2.0000                                         
     3  1  0.50        -4.0811   2.0000                                         
     3  2  1.50        -4.0817   0.0000                                         
   Description                                                                  
     l       E           TYP  RCUT    TYP  RCUT                                 
     0    -10.8127223     23  1.900                                             
     0     -7.6451159     23  1.900                                             
     1     -4.0811372     23  1.900                                             
     1      2.4879257     23  1.900                                             
     2     -4.0817478      7  1.900                                             
  local pseudopotential read in
  partial core-charges read in
  partial kinetic energy density read in
  atomic valenz-charges read in
  non local Contribution for L=           0  read in
    real space projection operators read in
  non local Contribution for L=           0  read in
    real space projection operators read in
  non local Contribution for L=           1  read in
    real space projection operators read in
  non local Contribution for L=           1  read in
    real space projection operators read in
    PAW grid and wavefunctions read in
 
   number of l-projection  operators is LMAX  =           4
   number of lm-projection operators is LMMAX =           8
 
  PAW_PBE Si 05Jan2001                  :
 energy of atom  1       EATOM= -103.0669
 kinetic energy error for atom=    0.0061 (will be added to EATOM!!)
 
 
 POSCAR: system Si                               
  positions in cartesian coordinates
  No initial velocities read in
 exchange correlation table for  LEXCH =        8
   RHO(1)=    0.500       N(1)  =     2000
   RHO(2)=  100.500       N(2)  =     4000
 


--------------------------------------------------------------------------------------------------------


 ion  position               nearest neighbor table
   1  0.000  0.000  0.000-   2 2.35   2 2.35   2 2.35   2 2.35
   2  0.250  0.250  0.250-   1 2.35   1 2.35   1 2.35   1 2.35
 
  LATTYP: Found a face centered cubic cell.
 ALAT       =     5.4300000000
  
  Lattice vectors:
  
 A1 = (   2.7150000000,   2.7150000000,   0.0000000000)
 A2 = (   0.0000000000,   2.7150000000,   2.7150000000)
 A3 = (   2.7150000000,   0.0000000000,   2.7150000000)
 Subroutine PRICEL returns:
 Original cell was already a primitive cell.
 

Analysis of symmetry for initial positions (statically):

 Routine SETGRP: Setting up the symmetry group for a 
 face centered cubic supercell.


 Subroutine GETGRP returns: Found 48 space group operations
 (whereof 24 operations were pure point group operations)
 out of a pool of 48 trial point group operations.


The static configuration has the point symmetry T_d .
 The point group associated with its full space group is O_h .

Analysis of symmetry for dynamics (positions and initial velocities):

 Subroutine DYNSYM returns: Found 48 space group operations
 (whereof 24 operations were pure point group operations)
 out of a pool of 48 trial space group operations
 (whereof 24 operations were pure point group operations)
 and found also     1 'primitive' translations


The dynamic configuration has the point symmetry T_d .
 The point group associated with its full space group is O_h .
 
 
 KPOINTS: k-points for bandstructure L-G-X-U K-G  
  interpolating k-points between supplied coordinates
  k-points in reciprocal lattice


--------------------------------------------------------------------------------------------------------




 Dimension of arrays:
   k-points           NKPTS =     80   k-points in BZ     NKDIM =     80   number of bands    NBANDS=      8
   number of dos      NEDOS =    301   number of ions     NIONS =      2
   non local maximal  LDIM  =      4   non local SUM 2l+1 LMDIM =      8
   total plane-waves  NPLWV =   4096
   max r-space proj   IRMAX =      1   max aug-charges    IRDMAX=   3621
   dimension x,y,z NGX =    16 NGY =   16 NGZ =   16
   dimension x,y,z NGXF=    32 NGYF=   32 NGZF=   32
   support grid    NGXF=    32 NGYF=   32 NGZF=   32
   ions per type =               2
 NGX,Y,Z   is equivalent  to a cutoff of   6.93,  6.93,  6.93 a.u.
 NGXF,Y,Z  is equivalent  to a cutoff of  13.86, 13.86, 13.86 a.u.


 I would recommend the setting:
   dimension x,y,z NGX =    15 NGY =   15 NGZ =   15
 SYSTEM =  fcc Si                                  
 POSCAR =  system Si                               

 Startparameter for this run:
   NWRITE =      2    write-flag & timer
   PREC   = normal    normal or accurate (medium, high low for compatibility)
   ISTART =      1    job   : 0-new  1-cont  2-samecut
   ICHARG =     11    charge: 1-file 2-atom 10-const
   ISPIN  =      1    spin polarized calculation?
   LNONCOLLINEAR =      F non collinear calculations
   LSORBIT =      F    spin-orbit coupling
   INIWAV =      1    electr: 0-lowe 1-rand  2-diag
   LASPH  =      F    aspherical Exc in radial PAW
   METAGGA=      F    non-selfconsistent MetaGGA calc.

 Electronic Relaxation 1
   ENCUT  =  240.0 eV  17.64 Ry    4.20 a.u.   4.85  4.85  4.85*2*pi/ulx,y,z
   ENINI  =  240.0     initial cutoff
   ENAUG  =  322.1 eV  augmentation charge cutoff
   NELM   =     60;   NELMIN=  2; NELMDL=  0     # of ELM steps 
   EDIFF  = 0.1E-03   stopping-criterion for ELM
   LREAL  =      F    real-space projection
   LCOMPAT=      F    compatible to vasp.4.4
   GGA_COMPAT  = T    GGA compatible to vasp.4.4-vasp.4.6
   LMAXPAW     = -100 max onsite density
   LMAXMIX     =    2 max onsite mixed and CHGCAR
   VOSKOWN=      0    Vosko Wilk Nusair interpolation
   ROPT   =    0.00000
 Ionic relaxation
   EDIFFG = 0.1E-02   stopping-criterion for IOM
   NSW    =      0    number of steps for IOM
   NBLOCK =      1;   KBLOCK =      1    inner block; outer block 
   IBRION =     -1    ionic relax: 0-MD 1-quasi-New 2-CG
   NFREE  =      0    steps in history (QN), initial steepest desc. (CG)
   ISIF   =      2    stress and relaxation
   IWAVPR =     10    prediction:  0-non 1-charg 2-wave 3-comb
   ISYM   =      2    0-nonsym 1-usesym 2-fastsym
   LCORR  =      T    Harris-Foulkes like correction to forces

   POTIM  = 0.5000    time-step for ionic-motion
   TEIN   =    0.0    initial temperature
   TEBEG  =    0.0;   TEEND  =   0.0 temperature during run
   SMASS  =  -3.00    Nose mass-parameter (am)
   estimated Nose-frequenzy (Omega)   =  0.10E-29 period in steps =****** mass=  -0.337E-27a.u.
   SCALEE = 1.0000    scale energy and forces
   NPACO  =    256;   APACO  = 16.0  distance and # of slots for P.C.
   PSTRESS=    0.0 pullay stress

  Mass of Ions in am
   POMASS =  28.09
  Ionic Valenz
   ZVAL   =   4.00
  Atomic Wigner-Seitz radii
   RWIGS  =  -1.00
  virtual crystal weights 
   VCA    =   1.00
   NELECT =       8.0000    total number of electrons
   NUPDOWN=      -1.0000    fix difference up-down

 DOS related values:
   EMIN   =  10.00;   EMAX   =-10.00  energy-range for DOS
   EFERMI =   0.00
   ISMEAR =     0;   SIGMA  =   0.10  broadening in eV -4-tet -1-fermi 0-gaus

 Electronic relaxation 2 (details)
   IALGO  =     38    algorithm
   LDIAG  =      T    sub-space diagonalisation (order eigenvalues)
   LSUBROT=      T    optimize rotation matrix (better conditioning)
   TURBO    =      0    0=normal 1=particle mesh
   IRESTART =      0    0=no restart 2=restart with 2 vectors
   NREBOOT  =      0    no. of reboots
   NMIN     =      0    reboot dimension
   EREF     =   0.00    reference energy to select bands
   IMIX   =      4    mixing-type and parameters
     AMIX     =   0.40;   BMIX     =  1.00
     AMIX_MAG =   1.60;   BMIX_MAG =  1.00
     AMIN     =   0.10
     WC   =   100.;   INIMIX=   1;  MIXPRE=   1

 Intra band minimization:
   WEIMIN = 0.0000     energy-eigenvalue tresh-hold
   EBREAK =  0.31E-05  absolut break condition
   DEPER  =   0.30     relativ break condition  

   TIME   =   0.40     timestep for ELM

  volume/ion in A,a.u.               =      20.01       135.05
  Fermi-wavevector in a.u.,A,eV,Ry     =   0.957176  1.808800 12.465458  0.916185
  Thomas-Fermi vector in A             =   2.086170
 
 Write flags
   LWAVE  =      T    write WAVECAR
   LCHARG =      T    write CHGCAR
   LVTOT  =      F    write LOCPOT, total local potential
   LVHAR  =      F    write LOCPOT, Hartree potential only
   LELF   =      F    write electronic localiz. function (ELF)
   LORBIT =     11    0 simple, 1 ext, 2 COOP (PROOUT)


 Dipole corrections
   LMONO  =      F    monopole corrections only (constant potential shift)
   LDIPOL =      F    correct potential (dipole corrections)
   IDIPOL =      0    1-x, 2-y, 3-z, 4-all directions 
   EPSILON=  1.0000000 bulk dielectric constant

 Exchange correlation treatment:
   GGA     =    --    GGA type
   LEXCH   =     8    internal setting for exchange type
   VOSKOWN=      0    Vosko Wilk Nusair interpolation
   LHFCALC =     F    Hartree Fock is set to
   LHFONE  =     F    Hartree Fock one center treatment
   AEXX    =    0.0000 exact exchange contribution

 Linear response parameters
   LEPSILON=     F    determine dielectric tensor
   LRPA    =     F    only Hartree local field effects (RPA)
   LNABLA  =     F    use nabla operator in PAW spheres
   LVEL    =     F    velocity operator in full k-point grid
   LINTERFAST=   F  fast interpolation
   KINTER  =     0    interpolate to denser k-point grid
   CSHIFT  =0.1000    complex shift for real part using Kramers Kronig
   OMEGAMAX=  -1.0    maximum frequency
   RTIME   =    0.100 relaxation time in fs

 Orbital magnetization related:
   ORBITALMAG=     F  switch on orbital magnetization
   LCHIMAG   =     F  perturbation theory with respect to B field
   DQ        =  0.001000  dq finite difference perturbation B field



--------------------------------------------------------------------------------------------------------


 Static calculation
 charge density and potential remain constant during run
 non-spin polarized calculation
 Variant of blocked Davidson
 Davidson routine will perform the subspace rotation
 perform sub-space diagonalisation
    after iterative eigenvector-optimisation
 no mixing
 using additional bands            4
 reciprocal scheme for non local part
 use partial core corrections
 calculate Harris-corrections to forces 
   (improved forces if not selfconsistent)
 use gradient corrections 
 WARNING: stress and forces are not correct
  (second derivative of E(xc) not defined)
 use of overlap-Matrix (Vanderbilt PP)
 Gauss-broadening in eV      SIGMA  =   0.10


--------------------------------------------------------------------------------------------------------


  energy-cutoff  :      240.00
  volume of cell :       40.03
      direct lattice vectors                 reciprocal lattice vectors
     2.715000000  2.715000000  0.000000000     0.184162063  0.184162063 -0.184162063
     0.000000000  2.715000000  2.715000000    -0.184162063  0.184162063  0.184162063
     2.715000000  0.000000000  2.715000000     0.184162063 -0.184162063  0.184162063

  length of vectors
     3.839589822  3.839589822  3.839589822     0.318978049  0.318978049  0.318978049


 
 old parameters found on file WAVECAR:
  energy-cutoff  :      240.00
  volume of cell :       40.03
      direct lattice vectors                 reciprocal lattice vectors
     2.715000000  2.715000000  0.000000000     0.184162063  0.184162063 -0.184162063
     0.000000000  2.715000000  2.715000000    -0.184162063  0.184162063  0.184162063
     2.715000000  0.000000000  2.715000000     0.184162063 -0.184162063  0.184162063

  length of vectors

 
 k-points in units of 2pi/SCALE and weight: k-points for bandstructure L-G-X-U K-G  
   0.50000000  0.50000000  0.50000000       0.013
   0.47368421  0.47368421  0.47368421       0.013
   0.44736842  0.44736842  0.44736842       0.013
   0.42105263  0.42105263  0.42105263       0.013
   0.39473684  0.39473684  0.39473684       0.013
   0.36842105  0.36842105  0.36842105       0.013
   0.34210526  0.34210526  0.34210526       0.013
   0.31578947  0.31578947  0.31578947       0.013
   0.28947368  0.28947368  0.28947368       0.013
   0.26315789  0.26315789  0.26315789       0.013
   0.23684211  0.23684211  0.23684211       0.013
   0.21052632  0.21052632  0.21052632       0.013
   0.18421053  0.18421053  0.18421053       0.013
   0.15789474  0.15789474  0.15789474       0.013
   0.13157895  0.13157895  0.13157895       0.013
   0.10526316  0.10526316  0.10526316       0.013
   0.07894737  0.07894737  0.07894737       0.013
   0.05263158  0.05263158  0.05263158       0.013
   0.02631579  0.02631579  0.02631579       0.013
   0.00000000  0.00000000  0.00000000       0.013
   0.00000000  0.00000000  0.00000000       0.013
   0.00000000  0.00000000  0.05263158       0.013
   0.00000000  0.00000000  0.10526316       0.013
   0.00000000  0.00000000  0.15789474       0.013
   0.00000000  0.00000000  0.21052632       0.013
   0.00000000  0.00000000  0.26315789       0.013
   0.00000000  0.00000000  0.31578947       0.013
   0.00000000  0.00000000  0.36842105       0.013
   0.00000000  0.00000000  0.42105263       0.013
   0.00000000  0.00000000  0.47368421       0.013
   0.00000000  0.00000000  0.52631579       0.013
   0.00000000  0.00000000  0.57894737       0.013
   0.00000000  0.00000000  0.63157895       0.013
   0.00000000  0.00000000  0.68421053       0.013
   0.00000000  0.00000000  0.73684211       0.013
   0.00000000  0.00000000  0.78947368       0.013
   0.00000000  0.00000000  0.84210526       0.013
   0.00000000  0.00000000  0.89473684       0.013
   0.00000000  0.00000000  0.94736842       0.013
   0.00000000  0.00000000  1.00000000       0.013
   0.00000000  0.00000000  1.00000000       0.013
   0.01315789  0.01315789  1.00000000       0.013
   0.02631579  0.02631579  1.00000000       0.013
   0.03947368  0.03947368  1.00000000       0.013
   0.05263158  0.05263158  1.00000000       0.013
   0.06578947  0.06578947  1.00000000       0.013
   0.07894737  0.07894737  1.00000000       0.013
   0.09210526  0.09210526  1.00000000       0.013
   0.10526316  0.10526316  1.00000000       0.013
   0.11842105  0.11842105  1.00000000       0.013
   0.13157895  0.13157895  1.00000000       0.013
   0.14473684  0.14473684  1.00000000       0.013
   0.15789474  0.15789474  1.00000000       0.013
   0.17105263  0.17105263  1.00000000       0.013
   0.18421053  0.18421053  1.00000000       0.013
   0.19736842  0.19736842  1.00000000       0.013
   0.21052632  0.21052632  1.00000000       0.013
   0.22368421  0.22368421  1.00000000       0.013
   0.23684211  0.23684211  1.00000000       0.013
   0.25000000  0.25000000  1.00000000       0.013
   0.00000000  0.75000000  0.75000000       0.013
   0.00000000  0.71052632  0.71052632       0.013
   0.00000000  0.67105263  0.67105263       0.013
   0.00000000  0.63157895  0.63157895       0.013
   0.00000000  0.59210526  0.59210526       0.013
   0.00000000  0.55263158  0.55263158       0.013
   0.00000000  0.51315789  0.51315789       0.013
   0.00000000  0.47368421  0.47368421       0.013
   0.00000000  0.43421053  0.43421053       0.013
   0.00000000  0.39473684  0.39473684       0.013
   0.00000000  0.35526316  0.35526316       0.013
   0.00000000  0.31578947  0.31578947       0.013
   0.00000000  0.27631579  0.27631579       0.013
   0.00000000  0.23684211  0.23684211       0.013
   0.00000000  0.19736842  0.19736842       0.013
   0.00000000  0.15789474  0.15789474       0.013
   0.00000000  0.11842105  0.11842105       0.013
   0.00000000  0.07894737  0.07894737       0.013
   0.00000000  0.03947368  0.03947368       0.013
   0.00000000  0.00000000  0.00000000       0.013
 
 k-points in reciprocal lattice and weights: k-points for bandstructure L-G-X-U K-G  
   0.50000000  0.50000000  0.50000000       0.013
   0.47368421  0.47368421  0.47368421       0.013
   0.44736842  0.44736842  0.44736842       0.013
   0.42105263  0.42105263  0.42105263       0.013
   0.39473684  0.39473684  0.39473684       0.013
   0.36842105  0.36842105  0.36842105       0.013
   0.34210526  0.34210526  0.34210526       0.013
   0.31578947  0.31578947  0.31578947       0.013
   0.28947368  0.28947368  0.28947368       0.013
   0.26315789  0.26315789  0.26315789       0.013
   0.23684211  0.23684211  0.23684211       0.013
   0.21052632  0.21052632  0.21052632       0.013
   0.18421053  0.18421053  0.18421053       0.013
   0.15789474  0.15789474  0.15789474       0.013
   0.13157895  0.13157895  0.13157895       0.013
   0.10526316  0.10526316  0.10526316       0.013
   0.07894737  0.07894737  0.07894737       0.013
   0.05263158  0.05263158  0.05263158       0.013
   0.02631579  0.02631579  0.02631579       0.013
   0.00000000  0.00000000  0.00000000       0.013
   0.00000000  0.00000000  0.00000000       0.013
   0.00000000  0.02631579  0.02631579       0.013
   0.00000000  0.05263158  0.05263158       0.013
   0.00000000  0.07894737  0.07894737       0.013
   0.00000000  0.10526316  0.10526316       0.013
   0.00000000  0.13157895  0.13157895       0.013
   0.00000000  0.15789474  0.15789474       0.013
   0.00000000  0.18421053  0.18421053       0.013
   0.00000000  0.21052632  0.21052632       0.013
   0.00000000  0.23684211  0.23684211       0.013
   0.00000000  0.26315789  0.26315789       0.013
   0.00000000  0.28947368  0.28947368       0.013
   0.00000000  0.31578947  0.31578947       0.013
   0.00000000  0.34210526  0.34210526       0.013
   0.00000000  0.36842105  0.36842105       0.013
   0.00000000  0.39473684  0.39473684       0.013
   0.00000000  0.42105263  0.42105263       0.013
   0.00000000  0.44736842  0.44736842       0.013
   0.00000000  0.47368421  0.47368421       0.013
   0.00000000  0.50000000  0.50000000       0.013
   0.00000000  0.50000000  0.50000000       0.013
   0.01315789  0.50657895  0.50657895       0.013
   0.02631579  0.51315789  0.51315789       0.013
   0.03947368  0.51973684  0.51973684       0.013
   0.05263158  0.52631579  0.52631579       0.013
   0.06578947  0.53289474  0.53289474       0.013
   0.07894737  0.53947368  0.53947368       0.013
   0.09210526  0.54605263  0.54605263       0.013
   0.10526316  0.55263158  0.55263158       0.013
   0.11842105  0.55921053  0.55921053       0.013
   0.13157895  0.56578947  0.56578947       0.013
   0.14473684  0.57236842  0.57236842       0.013
   0.15789474  0.57894737  0.57894737       0.013
   0.17105263  0.58552632  0.58552632       0.013
   0.18421053  0.59210526  0.59210526       0.013
   0.19736842  0.59868421  0.59868421       0.013
   0.21052632  0.60526316  0.60526316       0.013
   0.22368421  0.61184211  0.61184211       0.013
   0.23684211  0.61842105  0.61842105       0.013
   0.25000000  0.62500000  0.62500000       0.013
   0.37500000  0.75000000  0.37500000       0.013
   0.35526316  0.71052632  0.35526316       0.013
   0.33552632  0.67105263  0.33552632       0.013
   0.31578947  0.63157895  0.31578947       0.013
   0.29605263  0.59210526  0.29605263       0.013
   0.27631579  0.55263158  0.27631579       0.013
   0.25657895  0.51315789  0.25657895       0.013
   0.23684211  0.47368421  0.23684211       0.013
   0.21710526  0.43421053  0.21710526       0.013
   0.19736842  0.39473684  0.19736842       0.013
   0.17763158  0.35526316  0.17763158       0.013
   0.15789474  0.31578947  0.15789474       0.013
   0.13815789  0.27631579  0.13815789       0.013
   0.11842105  0.23684211  0.11842105       0.013
   0.09868421  0.19736842  0.09868421       0.013
   0.07894737  0.15789474  0.07894737       0.013
   0.05921053  0.11842105  0.05921053       0.013
   0.03947368  0.07894737  0.03947368       0.013
   0.01973684  0.03947368  0.01973684       0.013
   0.00000000  0.00000000  0.00000000       0.013
 
 position of ions in fractional coordinates (direct lattice) 
   0.00000000  0.00000000  0.00000000
   0.25000000  0.25000000  0.25000000
 
 position of ions in cartesian coordinates  (Angst):
   0.00000000  0.00000000  0.00000000
   1.35750000  1.35750000  1.35750000
 


--------------------------------------------------------------------------------------------------------


 k-point  1 :  0.50000.50000.5000  plane waves:     344
 k-point  2 :  0.47370.47370.4737  plane waves:     341
 k-point  3 :  0.44740.44740.4474  plane waves:     338
 k-point  4 :  0.42110.42110.4211  plane waves:     338
 k-point  5 :  0.39470.39470.3947  plane waves:     344
 k-point  6 :  0.36840.36840.3684  plane waves:     338
 k-point  7 :  0.34210.34210.3421  plane waves:     344
 k-point  8 :  0.31580.31580.3158  plane waves:     344
 k-point  9 :  0.28950.28950.2895  plane waves:     338
 k-point 10 :  0.26320.26320.2632  plane waves:     338
 k-point 11 :  0.23680.23680.2368  plane waves:     338
 k-point 12 :  0.21050.21050.2105  plane waves:     332
 k-point 13 :  0.18420.18420.1842  plane waves:     329
 k-point 14 :  0.15790.15790.1579  plane waves:     332
 k-point 15 :  0.13160.13160.1316  plane waves:     335
 k-point 16 :  0.10530.10530.1053  plane waves:     332
 k-point 17 :  0.07890.07890.0789  plane waves:     332
 k-point 18 :  0.05260.05260.0526  plane waves:     332
 k-point 19 :  0.02630.02630.0263  plane waves:     331
 k-point 20 :  0.00000.00000.0000  plane waves:     331
 k-point 21 :  0.00000.00000.0000  plane waves:     331
 k-point 22 :  0.00000.02630.0263  plane waves:     331
 k-point 23 :  0.00000.05260.0526  plane waves:     331
 k-point 24 :  0.00000.07890.0789  plane waves:     335
 k-point 25 :  0.00000.10530.1053  plane waves:     335
 k-point 26 :  0.00000.13160.1316  plane waves:     331
 k-point 27 :  0.00000.15790.1579  plane waves:     335
 k-point 28 :  0.00000.18420.1842  plane waves:     335
 k-point 29 :  0.00000.21050.2105  plane waves:     339
 k-point 30 :  0.00000.23680.2368  plane waves:     343
 k-point 31 :  0.00000.26320.2632  plane waves:     343
 k-point 32 :  0.00000.28950.2895  plane waves:     339
 k-point 33 :  0.00000.31580.3158  plane waves:     331
 k-point 34 :  0.00000.34210.3421  plane waves:     327
 k-point 35 :  0.00000.36840.3684  plane waves:     327
 k-point 36 :  0.00000.39470.3947  plane waves:     327
 k-point 37 :  0.00000.42110.4211  plane waves:     335
 k-point 38 :  0.00000.44740.4474  plane waves:     334
 k-point 39 :  0.00000.47370.4737  plane waves:     342
 k-point 40 :  0.00000.50000.5000  plane waves:     342
 k-point 41 :  0.00000.50000.5000  plane waves:     342
 k-point 42 :  0.01320.50660.5066  plane waves:     342
 k-point 43 :  0.02630.51320.5132  plane waves:     342
 k-point 44 :  0.03950.51970.5197  plane waves:     342
 k-point 45 :  0.05260.52630.5263  plane waves:     342
 k-point 46 :  0.06580.53290.5329  plane waves:     342
 k-point 47 :  0.07890.53950.5395  plane waves:     342
 k-point 48 :  0.09210.54610.5461  plane waves:     342
 k-point 49 :  0.10530.55260.5526  plane waves:     342
 k-point 50 :  0.11840.55920.5592  plane waves:     342
 k-point 51 :  0.13160.56580.5658  plane waves:     342
 k-point 52 :  0.14470.57240.5724  plane waves:     342
 k-point 53 :  0.15790.57890.5789  plane waves:     343
 k-point 54 :  0.17110.58550.5855  plane waves:     335
 k-point 55 :  0.18420.59210.5921  plane waves:     335
 k-point 56 :  0.19740.59870.5987  plane waves:     341
 k-point 57 :  0.21050.60530.6053  plane waves:     341
 k-point 58 :  0.22370.61180.6118  plane waves:     341
 k-point 59 :  0.23680.61840.6184  plane waves:     337
 k-point 60 :  0.25000.62500.6250  plane waves:     337
 k-point 61 :  0.37500.75000.3750  plane waves:     337
 k-point 62 :  0.35530.71050.3553  plane waves:     343
 k-point 63 :  0.33550.67110.3355  plane waves:     347
 k-point 64 :  0.31580.63160.3158  plane waves:     343
 k-point 65 :  0.29610.59210.2961  plane waves:     339
 k-point 66 :  0.27630.55260.2763  plane waves:     335
 k-point 67 :  0.25660.51320.2566  plane waves:     339
 k-point 68 :  0.23680.47370.2368  plane waves:     339
 k-point 69 :  0.21710.43420.2171  plane waves:     331
 k-point 70 :  0.19740.39470.1974  plane waves:     333
 k-point 71 :  0.17760.35530.1776  plane waves:     333
 k-point 72 :  0.15790.31580.1579  plane waves:     333
 k-point 73 :  0.13820.27630.1382  plane waves:     333
 k-point 74 :  0.11840.23680.1184  plane waves:     331
 k-point 75 :  0.09870.19740.0987  plane waves:     329
 k-point 76 :  0.07890.15790.0789  plane waves:     333
 k-point 77 :  0.05920.11840.0592  plane waves:     333
 k-point 78 :  0.03950.07890.0395  plane waves:     333
 k-point 79 :  0.01970.03950.0197  plane waves:     331
 k-point 80 :  0.00000.00000.0000  plane waves:     331

 maximum and minimum number of plane-waves per node :       347      327

 maximum number of plane-waves:       347
 maximum index in each direction: 
   IXMAX=    4   IYMAX=    4   IZMAX=    4
   IXMIN=   -5   IYMIN=   -5   IZMIN=   -5

 WARNING: aliasing errors must be expected set NGX to  20 to avoid them
 WARNING: aliasing errors must be expected set NGY to  20 to avoid them
 WARNING: aliasing errors must be expected set NGZ to  20 to avoid them
 aliasing errors are usually negligible using standard VASP settings
 and one can safely disregard these warnings

 serial   3D FFT for wavefunctions
 parallel 3D FFT for charge:
    minimum data exchange during FFTs selected (reduces bandwidth)


 total amount of memory used by VASP on root node    33608. kBytes
========================================================================

   base      :      30000. kBytes
   nonl-proj :       1792. kBytes
   fftplans  :        302. kBytes
   grid      :        577. kBytes
   one-center:          6. kBytes
   wavefun   :        931. kBytes
 
 initial charge density was supplied:
 number of electron       7.9999994 magnetization 
 keeping initial charge density in first step


--------------------------------------------------------------------------------------------------------


 Maximum index for augmentation-charges          847 (set IRDMAX)


--------------------------------------------------------------------------------------------------------


 First call to EWALD:  gamma=   0.518
 Maximum number of real-space cells 3x 3x 3
 Maximum number of reciprocal cells 3x 3x 3

    FEWALD:  cpu time    0.00: real time    0.00


----------------------------------------- Iteration    1(   1)  ---------------------------------------


    POTLOK:  cpu time    0.01: real time    0.01
    SETDIJ:  cpu time    0.00: real time    0.00
     EDDAV:  cpu time    0.30: real time    0.30
       DOS:  cpu time    0.00: real time    0.00
    --------------------------------------------
      LOOP:  cpu time    0.31: real time    0.33

 eigenvalue-minimisations  :  1696
 total energy-change (2. order) :-0.6631830E+01  (-0.2717929E+02)
 number of electron       7.9999994 magnetization 
 augmentation part        7.9999994 magnetization 

 Free energy of the ion-electron system (eV)
  ---------------------------------------------------
  alpha Z        PSCENC =         3.36414726
  Ewald energy   TEWEN  =      -228.56352493
  -1/2 Hartree   DENC   =       -14.90601773
  -exchange  EXHF       =         0.00000000
  -V(xc)+E(xc)   XCENC  =       -17.95344313
  PAW double counting   =      1032.75528638     -997.79993535
  entropy T*S    EENTRO =        -0.00444085
  eigenvalues    EBANDS =        10.35454481
  atomic energy  EATOM  =       206.12155316
  ---------------------------------------------------
  free energy    TOTEN  =        -6.63183038 eV

  energy without entropy =       -6.62738952  energy(sigma->0) =       -6.62960995


--------------------------------------------------------------------------------------------------------


 E-fermi :   6.4346     XC(G=0):  -9.4119     alpha+bet :-11.9845


 k-point   1 :       0.5000    0.5000    0.5000
  band No.  band energies     occupation 
      1      -3.7980      2.00000
      2      -1.1374      2.00000
      3       4.6381      2.00000
      4       4.6381      2.00000
      5       7.3840      0.00000
      6       9.1950      0.00000
      7       9.1950      0.00000
      8      13.5683      0.00000

 k-point   2 :       0.4737    0.4737    0.4737
  band No.  band energies     occupation 
      1      -3.8371      2.00000
      2      -1.0805      2.00000
      3       4.6431      2.00000
      4       4.6431      2.00000
      5       7.3915      0.00000
      6       9.2011      0.00000
      7       9.2011      0.00000
      8      13.5777      0.00000

 k-point   3 :       0.4474    0.4474    0.4474
  band No.  band energies     occupation 
      1      -3.9455      2.00000
      2      -0.9204      2.00000
      3       4.6582      2.00000
      4       4.6582      2.00000
      5       7.4092      0.00000
      6       9.2200      0.00000
      7       9.2200      0.00000
      8      13.6038      0.00000

 k-point   4 :       0.4211    0.4211    0.4211
  band No.  band energies     occupation 
      1      -4.1026      2.00000
      2      -0.6773      2.00000
      3       4.6833      2.00000
      4       4.6833      2.00000
      5       7.4378      0.00000
      6       9.2467      0.00000
      7       9.2467      0.00000
      8      13.6461      0.00000

 k-point   5 :       0.3947    0.3947    0.3947
  band No.  band energies     occupation 
      1      -4.2885      2.00000
      2      -0.3728      2.00000
      3       4.7178      2.00000
      4       4.7178      2.00000
      5       7.4769      0.00000
      6       9.2802      0.00000
      7       9.2802      0.00000
      8      13.7051      0.00000

 k-point   6 :       0.3684    0.3684    0.3684
  band No.  band energies     occupation 
      1      -4.4864      2.00000
      2      -0.0203      2.00000
      3       4.7626      2.00000
      4       4.7626      2.00000
      5       7.5275      0.00000
      6       9.3183      0.00000
      7       9.3183      0.00000
      8      13.7813      0.00000

 k-point   7 :       0.3421    0.3421    0.3421
  band No.  band energies     occupation 
      1      -4.6860      2.00000
      2       0.3698      2.00000
      3       4.8198      2.00000
      4       4.8198      2.00000
      5       7.5906      0.00000
      6       9.3871      0.00000
      7       9.3871      0.00000
      8      14.1855      0.00000

 k-point   8 :       0.3158    0.3158    0.3158
  band No.  band energies     occupation 
      1      -4.8830      2.00000
      2       0.7865      2.00000
      3       4.8823      2.00000
      4       4.8823      2.00000
      5       7.6609      0.00000
      6       9.3833      0.00000
      7       9.3833      0.00000
      8      13.6860      0.00000

 k-point   9 :       0.2895    0.2895    0.2895
  band No.  band energies     occupation 
      1      -5.0708      2.00000
      2       1.2268      2.00000
      3       4.9595      2.00000
      4       4.9595      2.00000
      5       7.7442      0.00000
      6       9.3946      0.00000
      7       9.3946      0.00000
      8      13.3871      0.00000

 k-point  10 :       0.2632    0.2632    0.2632
  band No.  band energies     occupation 
      1      -5.2446      2.00000
      2       1.6875      2.00000
      3       5.0575      2.00000
      4       5.0575      2.00000
      5       7.8392      0.00000
      6       9.4695      0.00000
      7       9.4695      0.00000
      8      13.0502      0.00000

 k-point  11 :       0.2368    0.2368    0.2368
  band No.  band energies     occupation 
      1      -5.4079      2.00000
      2       2.1587      2.00000
      3       5.1432      2.00000
      4       5.1432      2.00000
      5       7.9355      0.00000
      6       9.4019      0.00000
      7       9.4019      0.00000
      8      12.5823      0.00000

 k-point  12 :       0.2105    0.2105    0.2105
  band No.  band energies     occupation 
      1      -5.5570      2.00000
      2       2.6402      2.00000
      3       5.2294      2.00000
      4       5.2310      2.00000
      5       8.0377      0.00000
      6       9.2795      0.00000
      7       9.3160      0.00000
      8      12.1050      0.00000

 k-point  13 :       0.1842    0.1842    0.1842
  band No.  band energies     occupation 
      1      -5.6896      2.00000
      2       3.1353      2.00000
      3       5.3263      2.00000
      4       5.3278      2.00000
      5       8.1406      0.00000
      6       9.1614      0.00000
      7       9.1716      0.00000
      8      11.6900      0.00000

 k-point  14 :       0.1579    0.1579    0.1579
  band No.  band energies     occupation 
      1      -5.8059      2.00000
      2       3.6285      2.00000
      3       5.4273      2.00000
      4       5.4274      2.00000
      5       8.2341      0.00000
      6       9.0159      0.00000
      7       9.0178      0.00000
      8      11.1695      0.00000

 k-point  15 :       0.1316    0.1316    0.1316
  band No.  band energies     occupation 
      1      -5.9040      2.00000
      2       4.1230      2.00000
      3       5.5314      2.00000
      4       5.5323      2.00000
      5       8.3280      0.00000
      6       8.8742      0.00000
      7       8.8786      0.00000
      8      10.7012      0.00000

 k-point  16 :       0.1053    0.1053    0.1053
  band No.  band energies     occupation 
      1      -5.9838      2.00000
      2       4.6085      2.00000
      3       5.6314      2.00000
      4       5.6349      2.00000
      5       8.4085      0.00000
      6       8.7337      0.00000
      7       8.7375      0.00000
      8      10.2395      0.00000

 k-point  17 :       0.0789    0.0789    0.0789
  band No.  band energies     occupation 
      1      -6.0450      2.00000
      2       5.0655      2.00000
      3       5.7203      2.00000
      4       5.7275      2.00000
      5       8.4624      0.00000
      6       8.6072      0.00000
      7       8.6099      0.00000
      8       9.8213      0.00000

 k-point  18 :       0.0526    0.0526    0.0526
  band No.  band energies     occupation 
      1      -6.0875      2.00000
      2       5.4644      2.00000
      3       5.7923      2.00000
      4       5.8037      2.00000
      5       8.4743      0.00000
      6       8.5066      0.00000
      7       8.5078      0.00000
      8       9.4859      0.00000

 k-point  19 :       0.0263    0.0263    0.0263
  band No.  band energies     occupation 
      1      -6.1112      2.00000
      2       5.7553      2.00000
      3       5.8416      2.00000
      4       5.8561      2.00000
      5       8.4418      0.00000
      6       8.4418      0.00000
      7       8.4435      0.00000
      8       9.2801      0.00000

 k-point  20 :       0.0000    0.0000    0.0000
  band No.  band energies     occupation 
      1      -6.1130      2.00000
      2       6.1216      1.99999
      3       6.1283      1.99999
      4       6.5236      0.20835
      5       8.4420      0.00000
      6       9.3213      0.00000
      7       9.3555      0.00000
      8      11.6824      0.00000

 k-point  21 :       0.0000    0.0000    0.0000
  band No.  band energies     occupation 
      1      -6.1130      2.00000
      2       6.1268      1.99999
      3       6.1413      1.99997
      4       6.5235      0.20860
      5       8.4420      0.00000
      6       9.3481      0.00000
      7       9.4216      0.00000
      8      11.6823      0.00000

 k-point  22 :       0.0000    0.0263    0.0263
  band No.  band energies     occupation 
      1      -6.1020      2.00000
      2       5.9576      2.00000
      3       5.9851      2.00000
      4       6.2234      1.99718
      5       8.4036      0.00000
      6       9.4450      0.00000
      7       9.5778      0.00000
      8      12.0116      0.00000

 k-point  23 :       0.0000    0.0526    0.0526
  band No.  band energies     occupation 
      1      -6.0664      2.00000
      2       5.7368      2.00000
      3       5.7814      2.00000
      4       5.8475      2.00000
      5       8.3116      0.00000
      6       9.5872      0.00000
      7       9.8746      0.00000
      8      12.0482      0.00000

 k-point  24 :       0.0000    0.0789    0.0789
  band No.  band energies     occupation 
      1      -6.0066      2.00000
      2       5.4035      2.00000
      3       5.5166      2.00000
      4       5.5363      2.00000
      5       8.1759      0.00000
      6       9.8323      0.00000
      7      10.2337      0.00000
      8      11.8596      0.00000

 k-point  25 :       0.0000    0.1053    0.1053
  band No.  band energies     occupation 
      1      -5.9223      2.00000
      2       4.9644      2.00000
      3       5.2612      2.00000
      4       5.2733      2.00000
      5       8.0090      0.00000
      6      10.2159      0.00000
      7      10.5209      0.00000
      8      11.5333      0.00000

 k-point  26 :       0.0000    0.1316    0.1316
  band No.  band energies     occupation 
      1      -5.8138      2.00000
      2       4.5034      2.00000
      3       5.0035      2.00000
      4       5.0107      2.00000
      5       7.8233      0.00000
      6      10.4052      0.00000
      7      10.8702      0.00000
      8      11.1429      0.00000

 k-point  27 :       0.0000    0.1579    0.1579
  band No.  band energies     occupation 
      1      -5.6827      2.00000
      2       4.0156      2.00000
      3       4.7419      2.00000
      4       4.7471      2.00000
      5       7.6240      0.00000
      6      10.3631      0.00000
      7      10.4450      0.00000
      8      10.6662      0.00000

 k-point  28 :       0.0000    0.1842    0.1842
  band No.  band energies     occupation 
      1      -5.5223      2.00000
      2       3.5444      2.00000
      3       4.5078      2.00000
      4       4.5104      2.00000
      5       7.4345      0.00000
      6      10.1084      0.00000
      7      11.1378      0.00000
      8      11.4953      0.00000

 k-point  29 :       0.0000    0.2105    0.2105
  band No.  band energies     occupation 
      1      -5.3403      2.00000
      2       3.0638      2.00000
      3       4.2746      2.00000
      4       4.2768      2.00000
      5       7.2489      0.00000
      6       9.6775      0.00000
      7      11.5175      0.00000
      8      11.8412      0.00000

 k-point  30 :       0.0000    0.2368    0.2368
  band No.  band energies     occupation 
      1      -5.1420      2.00000
      2       2.5742      2.00000
      3       4.0554      2.00000
      4       4.0602      2.00000
      5       7.0708      0.00000
      6       9.2215      0.00000
      7      11.6580      0.00000
      8      11.7440      0.00000

 k-point  31 :       0.0000    0.2632    0.2632
  band No.  band energies     occupation 
      1      -4.9202      2.00000
      2       2.1076      2.00000
      3       3.8665      2.00000
      4       3.8758      2.00000
      5       6.9184      0.00000
      6       8.8664      0.00000
      7      11.8570      0.00000
      8      12.0333      0.00000

 k-point  32 :       0.0000    0.2895    0.2895
  band No.  band energies     occupation 
      1      -4.6747      2.00000
      2       1.6327      2.00000
      3       3.6862      2.00000
      4       3.6912      2.00000
      5       6.7738      0.00000
      6       8.4554      0.00000
      7      12.3307      0.00000
      8      12.5318      0.00000

 k-point  33 :       0.0000    0.3158    0.3158
  band No.  band energies     occupation 
      1      -4.4063      2.00000
      2       1.1641      2.00000
      3       3.5432      2.00000
      4       3.5588      2.00000
      5       6.6506      0.00225
      6       8.1487      0.00000
      7      12.9100      0.00000
      8      13.4085      0.00000

 k-point  34 :       0.0000    0.3421    0.3421
  band No.  band energies     occupation 
      1      -4.1194      2.00000
      2       0.6929      2.00000
      3       3.3908      2.00000
      4       3.4118      2.00000
      5       6.5562      0.08534
      6       7.8276      0.00000
      7      13.4022      0.00000
      8      13.9019      0.00000

 k-point  35 :       0.0000    0.3684    0.3684
  band No.  band energies     occupation 
      1      -3.8112      2.00000
      2       0.2313      2.00000
      3       3.2648      2.00000
      4       3.2860      2.00000
      5       6.4901      0.43216
      6       7.5405      0.00000
      7      13.8813      0.00000
      8      14.4032      0.00000

 k-point  36 :       0.0000    0.3947    0.3947
  band No.  band energies     occupation 
      1      -3.4806      2.00000
      2      -0.2209      2.00000
      3       3.1643      2.00000
      4       3.1864      2.00000
      5       6.4517      0.80894
      6       7.2841      0.00000
      7      14.3729      0.00000
      8      14.8385      0.00000

 k-point  37 :       0.0000    0.4211    0.4211
  band No.  band energies     occupation 
      1      -3.1267      2.00000
      2      -0.6731      2.00000
      3       3.0947      2.00000
      4       3.1088      2.00000
      5       6.4414      0.92384
      6       7.0937      0.00000
      7      14.8930      0.00000
      8      15.1645      0.00000

 k-point  38 :       0.0000    0.4474    0.4474
  band No.  band energies     occupation 
      1      -2.7604      2.00000
      2      -1.1303      2.00000
      3       3.0419      2.00000
      4       3.0443      2.00000
      5       6.4580      0.74106
      6       6.8472      0.00000
      7      15.3479      0.00000
      8      15.4313      0.00000

 k-point  39 :       0.0000    0.4737    0.4737
  band No.  band energies     occupation 
      1      -2.3746      2.00000
      2      -1.5472      2.00000
      3       3.0184      2.00000
      4       3.0208      2.00000
      5       6.5053      0.31739
      6       6.7138      0.00008
      7      15.8604      0.00000
      8      15.8873      0.00000

 k-point  40 :       0.0000    0.5000    0.5000
  band No.  band energies     occupation 
      1      -1.9730      2.00000
      2      -1.9346      2.00000
      3       3.0178      2.00000
      4       3.0179      2.00000
      5       6.5824      0.03654
      6       6.5860      0.03231
      7      16.3182      0.00000
      8      16.3185      0.00000

 k-point  41 :       0.0000    0.5000    0.5000
  band No.  band energies     occupation 
      1      -1.9730      2.00000
      2      -1.9346      2.00000
      3       3.0178      2.00000
      4       3.0179      2.00000
      5       6.5824      0.03654
      6       6.5860      0.03231
      7      16.3182      0.00000
      8      16.3185      0.00000

 k-point  42 :       0.0132    0.5066    0.5066
  band No.  band energies     occupation 
      1      -1.9725      2.00000
      2      -1.9341      2.00000
      3       3.0074      2.00000
      4       3.0190      2.00000
      5       6.5854      0.03298
      6       6.6000      0.01933
      7      16.3066      0.00000
      8      16.3112      0.00000

 k-point  43 :       0.0263    0.5132    0.5132
  band No.  band energies     occupation 
      1      -1.9715      2.00000
      2      -1.9322      2.00000
      3       2.9765      2.00000
      4       3.0227      2.00000
      5       6.5897      0.02825
      6       6.6460      0.00280
      7      16.2721      0.00000
      8      16.2880      0.00000

 k-point  44 :       0.0395    0.5197    0.5197
  band No.  band energies     occupation 
      1      -1.9709      2.00000
      2      -1.9278      2.00000
      3       2.9270      2.00000
      4       3.0289      2.00000
      5       6.5967      0.02185
      6       6.7209      0.00005
      7      16.2160      0.00000
      8      16.2459      0.00000

 k-point  45 :       0.0526    0.5263    0.5263
  band No.  band energies     occupation 
      1      -1.9722      2.00000
      2      -1.9198      2.00000
      3       2.8613      2.00000
      4       3.0375      2.00000
      5       6.6065      0.01505
      6       6.8224      0.00000
      7      16.1404      0.00000
      8      16.1811      0.00000

 k-point  46 :       0.0658    0.5329    0.5329
  band No.  band energies     occupation 
      1      -1.9759      2.00000
      2      -1.9077      2.00000
      3       2.7824      2.00000
      4       3.0485      2.00000
      5       6.6191      0.00909
      6       6.9474      0.00000
      7      16.0475      0.00000
      8      16.0908      0.00000

 k-point  47 :       0.0789    0.5395    0.5395
  band No.  band energies     occupation 
      1      -1.9821      2.00000
      2      -1.8914      2.00000
      3       2.6934      2.00000
      4       3.0620      2.00000
      5       6.6344      0.00472
      6       7.0932      0.00000
      7      15.9397      0.00000
      8      15.9749      0.00000

 k-point  48 :       0.0921    0.5461    0.5461
  band No.  band energies     occupation 
      1      -1.9908      2.00000
      2      -1.8714      2.00000
      3       2.5971      2.00000
      4       3.0779      2.00000
      5       6.6525      0.00206
      6       7.2570      0.00000
      7      15.8196      0.00000
      8      15.8358      0.00000

 k-point  49 :       0.1053    0.5526    0.5526
  band No.  band energies     occupation 
      1      -2.0020      2.00000
      2      -1.8477      2.00000
      3       2.4961      2.00000
      4       3.0962      2.00000
      5       6.6733      0.00074
      6       7.4364      0.00000
      7      15.6780      0.00000
      8      15.6894      0.00000

 k-point  50 :       0.1184    0.5592    0.5592
  band No.  band energies     occupation 
      1      -2.0159      2.00000
      2      -1.8204      2.00000
      3       2.3928      2.00000
      4       3.1169      2.00000
      5       6.6969      0.00021
      6       7.6293      0.00000
      7      15.5067      0.00000
      8      15.5510      0.00000

 k-point  51 :       0.1316    0.5658    0.5658
  band No.  band energies     occupation 
      1      -2.0327      2.00000
      2      -1.7900      2.00000
      3       2.2891      2.00000
      4       3.1400      2.00000
      5       6.7232      0.00004
      6       7.8342      0.00000
      7      15.3228      0.00000
      8      15.4049      0.00000

 k-point  52 :       0.1447    0.5724    0.5724
  band No.  band energies     occupation 
      1      -2.0527      2.00000
      2      -1.7560      2.00000
      3       2.1870      2.00000
      4       3.1654      2.00000
      5       6.7522      0.00001
      6       8.0491      0.00000
      7      15.1376      0.00000
      8      15.2552      0.00000

 k-point  53 :       0.1579    0.5789    0.5789
  band No.  band energies     occupation 
      1      -2.0763      2.00000
      2      -1.7185      2.00000
      3       2.0878      2.00000
      4       3.1931      2.00000
      5       6.7839      0.00000
      6       8.2721      0.00000
      7      14.9501      0.00000
      8      15.1017      0.00000

 k-point  54 :       0.1711    0.5855    0.5855
  band No.  band energies     occupation 
      1      -2.1039      2.00000
      2      -1.6779      2.00000
      3       1.9931      2.00000
      4       3.2230      2.00000
      5       6.8186      0.00000
      6       8.5046      0.00000
      7      14.7634      0.00000
      8      14.9498      0.00000

 k-point  55 :       0.1842    0.5921    0.5921
  band No.  band energies     occupation 
      1      -2.1353      2.00000
      2      -1.6338      2.00000
      3       1.9037      2.00000
      4       3.2553      2.00000
      5       6.8556      0.00000
      6       8.7439      0.00000
      7      14.5757      0.00000
      8      14.7919      0.00000

 k-point  56 :       0.1974    0.5987    0.5987
  band No.  band energies     occupation 
      1      -2.1711      2.00000
      2      -1.5862      2.00000
      3       1.8207      2.00000
      4       3.2897      2.00000
      5       6.8945      0.00000
      6       8.9898      0.00000
      7      14.3880      0.00000
      8      14.6266      0.00000

 k-point  57 :       0.2105    0.6053    0.6053
  band No.  band energies     occupation 
      1      -2.2116      2.00000
      2      -1.5355      2.00000
      3       1.7450      2.00000
      4       3.3264      2.00000
      5       6.9366      0.00000
      6       9.2414      0.00000
      7      14.2034      0.00000
      8      14.4674      0.00000

 k-point  58 :       0.2237    0.6118    0.6118
  band No.  band energies     occupation 
      1      -2.2569      2.00000
      2      -1.4815      2.00000
      3       1.6771      2.00000
      4       3.3652      2.00000
      5       6.9813      0.00000
      6       9.4984      0.00000
      7      14.0208      0.00000
      8      14.3083      0.00000

 k-point  59 :       0.2368    0.6184    0.6184
  band No.  band energies     occupation 
      1      -2.3074      2.00000
      2      -1.4242      2.00000
      3       1.6176      2.00000
      4       3.4059      2.00000
      5       7.0292      0.00000
      6       9.7605      0.00000
      7      13.8428      0.00000
      8      14.1504      0.00000

 k-point  60 :       0.2500    0.6250    0.6250
  band No.  band energies     occupation 
      1      -2.3629      2.00000
      2      -1.3637      2.00000
      3       1.5668      2.00000
      4       3.4489      2.00000
      5       7.0788      0.00000
      6      10.0268      0.00000
      7      13.6645      0.00000
      8      13.9933      0.00000

 k-point  61 :       0.3750    0.7500    0.3750
  band No.  band energies     occupation 
      1      -2.3839      2.00000
      2      -1.3388      2.00000
      3       1.5628      2.00000
      4       3.4518      2.00000
      5       7.0777      0.00000
      6      11.1133      0.00000
      7      13.3353      0.00000
      8      13.9109      0.00000

 k-point  62 :       0.3553    0.7105    0.3553
  band No.  band energies     occupation 
      1      -2.5855      2.00000
      2      -1.1425      2.00000
      3       1.4642      2.00000
      4       3.5879      2.00000
      5       7.2367      0.00000
      6      12.0638      0.00000
      7      12.8461      0.00000
      8      13.4539      0.00000

 k-point  63 :       0.3355    0.6711    0.3355
  band No.  band energies     occupation 
      1      -2.8271      2.00000
      2      -0.9172      2.00000
      3       1.4459      2.00000
      4       3.7404      2.00000
      5       7.4155      0.00000
      6      12.3828      0.00000
      7      12.6440      0.00000
      8      13.3331      0.00000

 k-point  64 :       0.3158    0.6316    0.3158
  band No.  band energies     occupation 
      1      -3.0985      2.00000
      2      -0.6633      2.00000
      3       1.5012      2.00000
      4       3.9070      2.00000
      5       7.6100      0.00000
      6      11.9418      0.00000
      7      12.3335      0.00000
      8      12.9788      0.00000

 k-point  65 :       0.2961    0.5921    0.2961
  band No.  band energies     occupation 
      1      -3.3885      2.00000
      2      -0.3808      2.00000
      3       1.6208      2.00000
      4       4.0854      2.00000
      5       7.8166      0.00000
      6      11.5234      0.00000
      7      11.9227      0.00000
      8      12.6503      0.00000

 k-point  66 :       0.2763    0.5526    0.2763
  band No.  band energies     occupation 
      1      -3.6868      2.00000
      2      -0.0703      2.00000
      3       1.7951      2.00000
      4       4.2729      2.00000
      5       8.0303      0.00000
      6      11.1298      0.00000
      7      11.5212      0.00000
      8      12.3518      0.00000

 k-point  67 :       0.2566    0.5132    0.2566
  band No.  band energies     occupation 
      1      -3.9846      2.00000
      2       0.2679      2.00000
      3       2.0155      2.00000
      4       4.4646      2.00000
      5       8.2434      0.00000
      6      10.7580      0.00000
      7      11.1405      0.00000
      8      12.0910      0.00000

 k-point  68 :       0.2368    0.4737    0.2368
  band No.  band energies     occupation 
      1      -4.2747      2.00000
      2       0.6333      2.00000
      3       2.2753      2.00000
      4       4.6574      2.00000
      5       8.4459      0.00000
      6      10.4142      0.00000
      7      10.7840      0.00000
      8      11.8765      0.00000

 k-point  69 :       0.2171    0.4342    0.2171
  band No.  band energies     occupation 
      1      -4.5522      2.00000
      2       1.0254      2.00000
      3       2.5688      2.00000
      4       4.8469      2.00000
      5       8.6254      0.00000
      6      10.0980      0.00000
      7      10.4546      0.00000
      8      11.7165      0.00000

 k-point  70 :       0.1974    0.3947    0.1974
  band No.  band energies     occupation 
      1      -4.8133      2.00000
      2       1.4429      2.00000
      3       2.8897      2.00000
      4       5.0275      2.00000
      5       8.7684      0.00000
      6       9.8067      0.00000
      7      10.1469      0.00000
      8      11.6168      0.00000

 k-point  71 :       0.1776    0.3553    0.1776
  band No.  band energies     occupation 
      1      -5.0549      2.00000
      2       1.8846      2.00000
      3       3.2330      2.00000
      4       5.1950      2.00000
      5       8.8643      0.00000
      6       9.5427      0.00000
      7       9.8646      0.00000
      8      11.5745      0.00000

 k-point  72 :       0.1579    0.3158    0.1579
  band No.  band energies     occupation 
      1      -5.2749      2.00000
      2       2.3502      2.00000
      3       3.5938      2.00000
      4       5.3455      2.00000
      5       8.9086      0.00000
      6       9.3057      0.00000
      7       9.6028      0.00000
      8      11.5657      0.00000

 k-point  73 :       0.1382    0.2763    0.1382
  band No.  band energies     occupation 
      1      -5.4719      2.00000
      2       2.8357      2.00000
      3       3.9645      2.00000
      4       5.4757      2.00000
      5       8.9101      0.00000
      6       9.0963      0.00000
      7       9.3675      0.00000
      8      11.5325      0.00000

 k-point  74 :       0.1184    0.2368    0.1184
  band No.  band energies     occupation 
      1      -5.6430      2.00000
      2       3.3407      2.00000
      3       4.3410      2.00000
      4       5.6026      2.00000
      5       8.8925      0.00000
      6       8.9145      0.00000
      7       9.1708      0.00000
      8      11.5116      0.00000

 k-point  75 :       0.0987    0.1974    0.0987
  band No.  band energies     occupation 
      1      -5.7909      2.00000
      2       3.8565      2.00000
      3       4.7077      2.00000
      4       5.6831      2.00000
      5       8.7605      0.00000
      6       8.8365      0.00000
      7       8.9752      0.00000
      8      11.1062      0.00000

 k-point  76 :       0.0789    0.1579    0.0789
  band No.  band energies     occupation 
      1      -5.9128      2.00000
      2       4.3761      2.00000
      3       5.0542      2.00000
      4       5.7450      2.00000
      5       8.6341      0.00000
      6       8.7698      0.00000
      7       8.7992      0.00000
      8      10.5929      0.00000

 k-point  77 :       0.0592    0.1184    0.0592
  band No.  band energies     occupation 
      1      -6.0079      2.00000
      2       4.8835      2.00000
      3       5.3642      2.00000
      4       5.7900      2.00000
      5       8.5359      0.00000
      6       8.6466      0.00000
      7       8.6932      0.00000
      8      10.0619      0.00000

 k-point  78 :       0.0395    0.0789    0.0395
  band No.  band energies     occupation 
      1      -6.0761      2.00000
      2       5.3469      2.00000
      3       5.6158      2.00000
      4       5.8202      2.00000
      5       8.4657      0.00000
      6       8.5229      0.00000
      7       8.5962      0.00000
      8       9.6020      0.00000

 k-point  79 :       0.0197    0.0395    0.0197
  band No.  band energies     occupation 
      1      -6.1170      2.00000
      2       5.7028      2.00000
      3       5.7840      2.00000
      4       5.8375      2.00000
      5       8.4235      0.00000
      6       8.4394      0.00000
      7       8.4762      0.00000
      8       9.3038      0.00000

 k-point  80 :       0.0000    0.0000    0.0000
  band No.  band energies     occupation 
      1      -6.1307      2.00000
      2       5.8432      2.00000
      3       5.8432      2.00000
      4       5.8432      2.00000
      5       8.4095      0.00000
      6       8.4095      0.00000
      7       8.4095      0.00000
      8       9.2079      0.00000


----------------------------------------- Iteration    1(   2)  ---------------------------------------


     EDDAV:  cpu time    0.35: real time    0.35
       DOS:  cpu time    0.00: real time    0.00
    --------------------------------------------
      LOOP:  cpu time    0.36: real time    0.36

 eigenvalue-minimisations  :  1752
 total energy-change (2. order) :-0.2479847E+00  (-0.2252590E+00)
 number of electron       7.9999994 magnetization 
 augmentation part        7.9999994 magnetization 

 Free energy of the ion-electron system (eV)
  ---------------------------------------------------
  alpha Z        PSCENC =         3.36414726
  Ewald energy   TEWEN  =      -228.56352493
  -1/2 Hartree   DENC   =       -14.90601773
  -exchange  EXHF       =         0.00000000
  -V(xc)+E(xc)   XCENC  =       -17.95344313
  PAW double counting   =      1032.75528638     -997.79993535
  entropy T*S    EENTRO =        -0.00000160
  eigenvalues    EBANDS =        10.10212086
  atomic energy  EATOM  =       206.12155316
  ---------------------------------------------------
  free energy    TOTEN  =        -6.87981507 eV

  energy without entropy =       -6.87981347  energy(sigma->0) =       -6.87981427


--------------------------------------------------------------------------------------------------------


 E-fermi :   6.1466     XC(G=0):  -9.4119     alpha+bet :-11.9845


 k-point   1 :       0.5000    0.5000    0.5000
  band No.  band energies     occupation 
      1      -3.7980      2.00000
      2      -1.1374      2.00000
      3       4.6381      2.00000
      4       4.6381      2.00000
      5       7.3840      0.00000
      6       9.1950      0.00000
      7       9.1950      0.00000
      8      13.5683      0.00000

 k-point   2 :       0.4737    0.4737    0.4737
  band No.  band energies     occupation 
      1      -3.8372      2.00000
      2      -1.0810      2.00000
      3       4.6431      2.00000
      4       4.6431      2.00000
      5       7.3914      0.00000
      6       9.2008      0.00000
      7       9.2008      0.00000
      8      13.5775      0.00000

 k-point   3 :       0.4474    0.4474    0.4474
  band No.  band energies     occupation 
      1      -3.9457      2.00000
      2      -0.9211      2.00000
      3       4.6581      2.00000
      4       4.6581      2.00000
      5       7.4090      0.00000
      6       9.2198      0.00000
      7       9.2198      0.00000
      8      13.6034      0.00000

 k-point   4 :       0.4211    0.4211    0.4211
  band No.  band energies     occupation 
      1      -4.1028      2.00000
      2      -0.6784      2.00000
      3       4.6830      2.00000
      4       4.6830      2.00000
      5       7.4374      0.00000
      6       9.2463      0.00000
      7       9.2463      0.00000
      8      13.6435      0.00000

 k-point   5 :       0.3947    0.3947    0.3947
  band No.  band energies     occupation 
      1      -4.2887      2.00000
      2      -0.3738      2.00000
      3       4.7177      2.00000
      4       4.7177      2.00000
      5       7.4767      0.00000
      6       9.2797      0.00000
      7       9.2797      0.00000
      8      13.6913      0.00000

 k-point   6 :       0.3684    0.3684    0.3684
  band No.  band energies     occupation 
      1      -4.4866      2.00000
      2      -0.0218      2.00000
      3       4.7624      2.00000
      4       4.7624      2.00000
      5       7.5273      0.00000
      6       9.3169      0.00000
      7       9.3169      0.00000
      8      13.7353      0.00000

 k-point   7 :       0.3421    0.3421    0.3421
  band No.  band energies     occupation 
      1      -4.6873      2.00000
      2       0.3648      2.00000
      3       4.8162      2.00000
      4       4.8163      2.00000
      5       7.5883      0.00000
      6       9.3512      0.00000
      7       9.3520      0.00000
      8      13.9921      0.00000

 k-point   8 :       0.3158    0.3158    0.3158
  band No.  band energies     occupation 
      1      -4.8836      2.00000
      2       0.7795      2.00000
      3       4.8800      2.00000
      4       4.8800      2.00000
      5       7.6596      0.00000
      6       9.3781      0.00000
      7       9.3781      0.00000
      8      13.6569      0.00000

 k-point   9 :       0.2895    0.2895    0.2895
  band No.  band energies     occupation 
      1      -5.0713      2.00000
      2       1.2174      2.00000
      3       4.9533      2.00000
      4       4.9533      2.00000
      5       7.7403      0.00000
      6       9.3900      0.00000
      7       9.3900      0.00000
      8      13.3619      0.00000

 k-point  10 :       0.2632    0.2632    0.2632
  band No.  band energies     occupation 
      1      -5.2476      2.00000
      2       1.6742      2.00000
      3       5.0349      2.00000
      4       5.0349      2.00000
      5       7.8295      0.00000
      6       9.3817      0.00000
      7       9.3817      0.00000
      8      12.9892      0.00000

 k-point  11 :       0.2368    0.2368    0.2368
  band No.  band energies     occupation 
      1      -5.4103      2.00000
      2       2.1470      2.00000
      3       5.1242      2.00000
      4       5.1242      2.00000
      5       7.9261      0.00000
      6       9.3352      0.00000
      7       9.3352      0.00000
      8      12.5487      0.00000

 k-point  12 :       0.2105    0.2105    0.2105
  band No.  band energies     occupation 
      1      -5.5583      2.00000
      2       2.6318      2.00000
      3       5.2206      2.00000
      4       5.2207      2.00000
      5       8.0274      0.00000
      6       9.2549      0.00000
      7       9.2577      0.00000
      8      12.0894      0.00000

 k-point  13 :       0.1842    0.1842    0.1842
  band No.  band energies     occupation 
      1      -5.6904      2.00000
      2       3.1264      2.00000
      3       5.3211      2.00000
      4       5.3211      2.00000
      5       8.1315      0.00000
      6       9.1452      0.00000
      7       9.1452      0.00000
      8      11.6187      0.00000

 k-point  14 :       0.1579    0.1579    0.1579
  band No.  band energies     occupation 
      1      -5.8061      2.00000
      2       3.6236      2.00000
      3       5.4243      2.00000
      4       5.4243      2.00000
      5       8.2315      0.00000
      6       9.0141      0.00000
      7       9.0141      0.00000
      8      11.1434      0.00000

 k-point  15 :       0.1316    0.1316    0.1316
  band No.  band energies     occupation 
      1      -5.9046      2.00000
      2       4.1185      2.00000
      3       5.5267      2.00000
      4       5.5268      2.00000
      5       8.3259      0.00000
      6       8.8714      0.00000
      7       8.8715      0.00000
      8      10.6720      0.00000

 k-point  16 :       0.1053    0.1053    0.1053
  band No.  band energies     occupation 
      1      -5.9856      2.00000
      2       4.6011      2.00000
      3       5.6255      2.00000
      4       5.6255      2.00000
      5       8.4068      0.00000
      6       8.7299      0.00000
      7       8.7299      0.00000
      8      10.2193      0.00000

 k-point  17 :       0.0789    0.0789    0.0789
  band No.  band energies     occupation 
      1      -6.0489      2.00000
      2       5.0544      2.00000
      3       5.7123      2.00000
      4       5.7124      2.00000
      5       8.4605      0.00000
      6       8.6018      0.00000
      7       8.6019      0.00000
      8       9.8076      0.00000

 k-point  18 :       0.0526    0.0526    0.0526
  band No.  band energies     occupation 
      1      -6.0943      2.00000
      2       5.4492      2.00000
      3       5.7819      2.00000
      4       5.7820      2.00000
      5       8.4712      0.00000
      6       8.4993      0.00000
      7       8.4994      0.00000
      8       9.4761      0.00000

 k-point  19 :       0.0263    0.0263    0.0263
  band No.  band energies     occupation 
      1      -6.1216      2.00000
      2       5.7356      2.00000
      3       5.8274      1.99999
      4       5.8275      1.99999
      5       8.4327      0.00000
      6       8.4328      0.00000
      7       8.4368      0.00000
      8       9.2721      0.00000

 k-point  20 :       0.0000    0.0000    0.0000
  band No.  band energies     occupation 
      1      -6.1307      2.00000
      2       5.8444      1.99998
      3       5.8444      1.99998
      4       5.8471      1.99998
      5       8.4095      0.00000
      6       8.4139      0.00000
      7       8.4141      0.00000
      8       9.2451      0.00000

 k-point  21 :       0.0000    0.0000    0.0000
  band No.  band energies     occupation 
      1      -6.1307      2.00000
      2       5.8444      1.99998
      3       5.8446      1.99998
      4       5.8471      1.99998
      5       8.4095      0.00000
      6       8.4140      0.00000
      7       8.4146      0.00000
      8       9.2451      0.00000

 k-point  22 :       0.0000    0.0263    0.0263
  band No.  band energies     occupation 
      1      -6.1185      2.00000
      2       5.7616      2.00000
      3       5.7916      2.00000
      4       5.7918      2.00000
      5       8.3794      0.00000
      6       8.4795      0.00000
      7       8.4804      0.00000
      8       9.2908      0.00000

 k-point  23 :       0.0000    0.0526    0.0526
  band No.  band energies     occupation 
      1      -6.0822      2.00000
      2       5.5355      2.00000
      3       5.6497      2.00000
      4       5.6499      2.00000
      5       8.2929      0.00000
      6       8.6658      0.00000
      7       8.6669      0.00000
      8       9.5080      0.00000

 k-point  24 :       0.0000    0.0789    0.0789
  band No.  band energies     occupation 
      1      -6.0217      2.00000
      2       5.2087      2.00000
      3       5.4477      2.00000
      4       5.4478      2.00000
      5       8.1602      0.00000
      6       8.9409      0.00000
      7       8.9423      0.00000
      8       9.8020      0.00000

 k-point  25 :       0.0000    0.1053    0.1053
  band No.  band energies     occupation 
      1      -5.9370      2.00000
      2       4.8218      2.00000
      3       5.2157      2.00000
      4       5.2158      2.00000
      5       7.9947      0.00000
      6       9.2769      0.00000
      7       9.2780      0.00000
      8      10.0939      0.00000

 k-point  26 :       0.0000    0.1316    0.1316
  band No.  band energies     occupation 
      1      -5.8283      2.00000
      2       4.3986      2.00000
      3       4.9713      2.00000
      4       4.9714      2.00000
      5       7.8093      0.00000
      6       9.6584      0.00000
      7       9.6674      0.00000
      8      10.2937      0.00000

 k-point  27 :       0.0000    0.1579    0.1579
  band No.  band energies     occupation 
      1      -5.6959      2.00000
      2       3.9528      2.00000
      3       4.7262      2.00000
      4       4.7262      2.00000
      5       7.6147      0.00000
      6      10.0608      0.00000
      7      10.0616      0.00000
      8      10.2361      0.00000

 k-point  28 :       0.0000    0.1842    0.1842
  band No.  band energies     occupation 
      1      -5.5397      2.00000
      2       3.4950      2.00000
      3       4.4879      2.00000
      4       4.4879      2.00000
      5       7.4203      0.00000
      6       9.9889      0.00000
      7      10.5670      0.00000
      8      10.5745      0.00000

 k-point  29 :       0.0000    0.2105    0.2105
  band No.  band energies     occupation 
      1      -5.3603      2.00000
      2       3.0280      2.00000
      3       4.2594      2.00000
      4       4.2594      2.00000
      5       7.2326      0.00000
      6       9.6003      0.00000
      7      11.0128      0.00000
      8      11.0246      0.00000

 k-point  30 :       0.0000    0.2368    0.2368
  band No.  band energies     occupation 
      1      -5.1580      2.00000
      2       2.5562      2.00000
      3       4.0465      2.00000
      4       4.0465      2.00000
      5       7.0569      0.00000
      6       9.1895      0.00000
      7      11.4178      0.00000
      8      11.4316      0.00000

 k-point  31 :       0.0000    0.2632    0.2632
  band No.  band energies     occupation 
      1      -4.9330      2.00000
      2       2.0829      2.00000
      3       3.8502      2.00000
      4       3.8502      2.00000
      5       6.8972      0.00000
      6       8.7905      0.00000
      7      11.8495      0.00000
      8      11.8579      0.00000

 k-point  32 :       0.0000    0.2895    0.2895
  band No.  band energies     occupation 
      1      -4.6854      2.00000
      2       1.6095      2.00000
      3       3.6720      2.00000
      4       3.6720      2.00000
      5       6.7578      0.00000
      6       8.4131      0.00000
      7      12.3233      0.00000
      8      12.3575      0.00000

 k-point  33 :       0.0000    0.3158    0.3158
  band No.  band energies     occupation 
      1      -4.4164      2.00000
      2       1.1377      2.00000
      3       3.5129      2.00000
      4       3.5129      2.00000
      5       6.6401      0.00000
      6       8.0612      0.00000
      7      12.8114      0.00000
      8      12.8152      0.00000

 k-point  34 :       0.0000    0.3421    0.3421
  band No.  band energies     occupation 
      1      -4.1262      2.00000
      2       0.6687      2.00000
      3       3.3738      2.00000
      4       3.3738      2.00000
      5       6.5463      0.00000
      6       7.7433      0.00000
      7      13.3023      0.00000
      8      13.3056      0.00000

 k-point  35 :       0.0000    0.3684    0.3684
  band No.  band energies     occupation 
      1      -3.8156      2.00000
      2       0.2047      2.00000
      3       3.2551      2.00000
      4       3.2551      2.00000
      5       6.4767      0.00000
      6       7.4586      0.00000
      7      13.7947      0.00000
      8      13.7974      0.00000

 k-point  36 :       0.0000    0.3947    0.3947
  band No.  band energies     occupation 
      1      -3.4852      2.00000
      2      -0.2528      2.00000
      3       3.1574      2.00000
      4       3.1574      2.00000
      5       6.4342      0.00005
      6       7.2090      0.00000
      7      14.2914      0.00000
      8      14.2934      0.00000

 k-point  37 :       0.0000    0.4211    0.4211
  band No.  band energies     occupation 
      1      -3.1359      2.00000
      2      -0.7020      2.00000
      3       3.0805      2.00000
      4       3.0805      2.00000
      5       6.4200      0.00011
      6       6.9941      0.00000
      7      14.7892      0.00000
      8      14.7927      0.00000

 k-point  38 :       0.0000    0.4474    0.4474
  band No.  band energies     occupation 
      1      -2.7685      2.00000
      2      -1.1413      2.00000
      3       3.0258      2.00000
      4       3.0258      2.00000
      5       6.4355      0.00004
      6       6.8156      0.00000
      7      15.2795      0.00000
      8      15.2797      0.00000

 k-point  39 :       0.0000    0.4737    0.4737
  band No.  band energies     occupation 
      1      -2.3842      2.00000
      2      -1.5695      2.00000
      3       2.9929      2.00000
      4       2.9930      2.00000
      5       6.4814      0.00000
      6       6.6703      0.00000
      7      15.7691      0.00000
      8      15.7934      0.00000

 k-point  40 :       0.0000    0.5000    0.5000
  band No.  band energies     occupation 
      1      -1.9842      2.00000
      2      -1.9842      2.00000
      3       2.9819      2.00000
      4       2.9820      2.00000
      5       6.5592      0.00000
      6       6.5592      0.00000
      7      16.0207      0.00000
      8      16.0208      0.00000

 k-point  41 :       0.0000    0.5000    0.5000
  band No.  band energies     occupation 
      1      -1.9842      2.00000
      2      -1.9842      2.00000
      3       2.9819      2.00000
      4       2.9820      2.00000
      5       6.5592      0.00000
      6       6.5592      0.00000
      7      16.0207      0.00000
      8      16.0208      0.00000

 k-point  42 :       0.0132    0.5066    0.5066
  band No.  band energies     occupation 
      1      -1.9848      2.00000
      2      -1.9825      2.00000
      3       2.9715      2.00000
      4       2.9832      2.00000
      5       6.5606      0.00000
      6       6.5747      0.00000
      7      16.0077      0.00000
      8      16.0106      0.00000

 k-point  43 :       0.0263    0.5132    0.5132
  band No.  band energies     occupation 
      1      -1.9867      2.00000
      2      -1.9776      2.00000
      3       2.9406      2.00000
      4       2.9868      2.00000
      5       6.5648      0.00000
      6       6.6207      0.00000
      7      15.9658      0.00000
      8      15.9827      0.00000

 k-point  44 :       0.0395    0.5197    0.5197
  band No.  band energies     occupation 
      1      -1.9899      2.00000
      2      -1.9694      2.00000
      3       2.8911      2.00000
      4       2.9929      2.00000
      5       6.5719      0.00000
      6       6.6953      0.00000
      7      15.8950      0.00000
      8      15.9399      0.00000

 k-point  45 :       0.0526    0.5263    0.5263
  band No.  band energies     occupation 
      1      -1.9945      2.00000
      2      -1.9580      2.00000
      3       2.8255      2.00000
      4       3.0014      2.00000
      5       6.5817      0.00000
      6       6.7964      0.00000
      7      15.7997      0.00000
      8      15.8834      0.00000

 k-point  46 :       0.0658    0.5329    0.5329
  band No.  band energies     occupation 
      1      -2.0007      2.00000
      2      -1.9432      2.00000
      3       2.7467      2.00000
      4       3.0124      2.00000
      5       6.5943      0.00000
      6       6.9209      0.00000
      7      15.6847      0.00000
      8      15.8138      0.00000

 k-point  47 :       0.0789    0.5395    0.5395
  band No.  band energies     occupation 
      1      -2.0086      2.00000
      2      -1.9252      2.00000
      3       2.6577      2.00000
      4       3.0257      2.00000
      5       6.6098      0.00000
      6       7.0661      0.00000
      7      15.5540      0.00000
      8      15.7323      0.00000

 k-point  48 :       0.0921    0.5461    0.5461
  band No.  band energies     occupation 
      1      -2.0185      2.00000
      2      -1.9039      2.00000
      3       2.5615      2.00000
      4       3.0414      2.00000
      5       6.6279      0.00000
      6       7.2293      0.00000
      7      15.4107      0.00000
      8      15.6398      0.00000

 k-point  49 :       0.1053    0.5526    0.5526
  band No.  band energies     occupation 
      1      -2.0306      2.00000
      2      -1.8793      2.00000
      3       2.4606      2.00000
      4       3.0596      2.00000
      5       6.6489      0.00000
      6       7.4081      0.00000
      7      15.2568      0.00000
      8      15.5374      0.00000

 k-point  50 :       0.1184    0.5592    0.5592
  band No.  band energies     occupation 
      1      -2.0451      2.00000
      2      -1.8515      2.00000
      3       2.3573      2.00000
      4       3.0800      2.00000
      5       6.6726      0.00000
      6       7.6003      0.00000
      7      15.0945      0.00000
      8      15.4262      0.00000

 k-point  51 :       0.1316    0.5658    0.5658
  band No.  band energies     occupation 
      1      -2.0624      2.00000
      2      -1.8201      2.00000
      3       2.2535      2.00000
      4       3.1029      2.00000
      5       6.6991      0.00000
      6       7.8045      0.00000
      7      14.9774      0.00000
      8      15.3388      0.00000

 k-point  52 :       0.1447    0.5724    0.5724
  band No.  band energies     occupation 
      1      -2.0829      2.00000
      2      -1.7858      2.00000
      3       2.1515      2.00000
      4       3.1280      2.00000
      5       6.7282      0.00000
      6       8.0187      0.00000
      7      14.8064      0.00000
      8      15.2018      0.00000

 k-point  53 :       0.1579    0.5789    0.5789
  band No.  band energies     occupation 
[...]
      8      15.8267      0.00000

 k-point  46 :       0.0658    0.5329    0.5329
  band No.  band energies     occupation 
      1      -2.0007      2.00000
      2      -1.9432      2.00000
      3       2.7467      2.00000
      4       3.0123      2.00000
      5       6.5943      0.00000
      6       6.9209      0.00000
      7      15.5982      0.00000
      8      15.7540      0.00000

 k-point  47 :       0.0789    0.5395    0.5395
  band No.  band energies     occupation 
      1      -2.0086      2.00000
      2      -1.9252      2.00000
      3       2.6577      2.00000
      4       3.0257      2.00000
      5       6.6097      0.00000
      6       7.0661      0.00000
      7      15.4629      0.00000
      8      15.6698      0.00000

 k-point  48 :       0.0921    0.5461    0.5461
  band No.  band energies     occupation 
      1      -2.0185      2.00000
      2      -1.9039      2.00000
      3       2.5615      2.00000
      4       3.0414      2.00000
      5       6.6279      0.00000
      6       7.2293      0.00000
      7      15.3172      0.00000
      8      15.5760      0.00000

 k-point  49 :       0.1053    0.5526    0.5526
  band No.  band energies     occupation 
      1      -2.0306      2.00000
      2      -1.8793      2.00000
      3       2.4605      2.00000
      4       3.0595      2.00000
      5       6.6489      0.00000
      6       7.4081      0.00000
      7      15.1636      0.00000
      8      15.4742      0.00000

 k-point  50 :       0.1184    0.5592    0.5592
  band No.  band energies     occupation 
      1      -2.0451      2.00000
      2      -1.8515      2.00000
      3       2.3573      2.00000
      4       3.0800      2.00000
      5       6.6726      0.00000
      6       7.6003      0.00000
      7      15.0044      0.00000
      8      15.3657      0.00000

 k-point  51 :       0.1316    0.5658    0.5658
  band No.  band energies     occupation 
      1      -2.0624      2.00000
      2      -1.8202      2.00000
      3       2.2535      2.00000
      4       3.1028      2.00000
      5       6.6991      0.00000
      6       7.8045      0.00000
      7      14.8353      0.00000
      8      15.2502      0.00000

 k-point  52 :       0.1447    0.5724    0.5724
  band No.  band energies     occupation 
      1      -2.0829      2.00000
      2      -1.7858      2.00000
      3       2.1515      2.00000
      4       3.1280      2.00000
      5       6.7282      0.00000
      6       8.0187      0.00000
      7      14.6694      0.00000
      8      15.1309      0.00000

 k-point  53 :       0.1579    0.5789    0.5789
  band No.  band energies     occupation 
      1      -2.1071      2.00000
      2      -1.7481      2.00000
      3       2.0521      2.00000
      4       3.1555      2.00000
      5       6.7600      0.00000
      6       8.2408      0.00000
      7      14.5018      0.00000
      8      15.0084      0.00000

 k-point  54 :       0.1711    0.5855    0.5855
  band No.  band energies     occupation 
      1      -2.1349      2.00000
      2      -1.7071      2.00000
      3       1.9575      2.00000
      4       3.1853      2.00000
      5       6.7948      0.00000
      6       8.4726      0.00000
      7      14.3353      0.00000
      8      14.8859      0.00000

 k-point  55 :       0.1842    0.5921    0.5921
  band No.  band energies     occupation 
      1      -2.1668      2.00000
      2      -1.6629      2.00000
      3       1.8683      2.00000
      4       3.2173      2.00000
      5       6.8318      0.00000
      6       8.7110      0.00000
      7      14.1661      0.00000
      8      14.7570      0.00000

 k-point  56 :       0.1974    0.5987    0.5987
  band No.  band energies     occupation 
      1      -2.2033      2.00000
      2      -1.6156      2.00000
      3       1.7853      2.00000
      4       3.2515      2.00000
      5       6.8706      0.00000
      6       8.9555      0.00000
      7      13.9972      0.00000
      8      14.5996      0.00000

 k-point  57 :       0.2105    0.6053    0.6053
  band No.  band energies     occupation 
      1      -2.2444      2.00000
      2      -1.5649      2.00000
      3       1.7097      2.00000
      4       3.2878      2.00000
      5       6.9128      0.00000
      6       9.2059      0.00000
      7      13.8292      0.00000
      8      14.4261      0.00000

 k-point  58 :       0.2237    0.6118    0.6118
  band No.  band energies     occupation 
      1      -2.2905      2.00000
      2      -1.5110      2.00000
      3       1.6420      2.00000
      4       3.3263      2.00000
      5       6.9574      0.00000
      6       9.4613      0.00000
      7      13.6624      0.00000
      8      14.2417      0.00000

 k-point  59 :       0.2368    0.6184    0.6184
  band No.  band energies     occupation 
      1      -2.3415      2.00000
      2      -1.4537      2.00000
      3       1.5826      2.00000
      4       3.3670      2.00000
      5       7.0051      0.00000
      6       9.7213      0.00000
      7      13.4983      0.00000
      8      14.0659      0.00000

 k-point  60 :       0.2500    0.6250    0.6250
  band No.  band energies     occupation 
      1      -2.3978      2.00000
      2      -1.3933      2.00000
      3       1.5321      2.00000
      4       3.4096      2.00000
      5       7.0546      0.00000
      6       9.9850      0.00000
      7      13.3343      0.00000
      8      13.8938      0.00000

 k-point  61 :       0.3750    0.7500    0.3750
  band No.  band energies     occupation 
      1      -2.3978      2.00000
      2      -1.3933      2.00000
      3       1.5321      2.00000
      4       3.4096      2.00000
      5       7.0546      0.00000
      6       9.9850      0.00000
      7      13.3342      0.00000
      8      13.8923      0.00000

 k-point  62 :       0.3553    0.7105    0.3553
  band No.  band energies     occupation 
      1      -2.5966      2.00000
      2      -1.1931      2.00000
      3       1.4345      2.00000
      4       3.5489      2.00000
      5       7.2156      0.00000
      6      10.7916      0.00000
      7      12.8455      0.00000
      8      13.4012      0.00000

 k-point  63 :       0.3355    0.6711    0.3355
  band No.  band energies     occupation 
      1      -2.8362      2.00000
      2      -0.9641      2.00000
      3       1.4178      2.00000
      4       3.7048      2.00000
      5       7.3962      0.00000
      6      11.5842      0.00000
      7      12.3825      0.00000
      8      12.9782      0.00000

 k-point  64 :       0.3158    0.6316    0.3158
  band No.  band energies     occupation 
      1      -3.1058      2.00000
      2      -0.7065      2.00000
      3       1.4755      2.00000
      4       3.8750      2.00000
      5       7.5927      0.00000
      6      11.9416      0.00000
      7      12.0817      0.00000
      8      12.9412      0.00000

 k-point  65 :       0.2961    0.5921    0.2961
  band No.  band energies     occupation 
      1      -3.3945      2.00000
      2      -0.4203      2.00000
      3       1.5979      2.00000
      4       4.0569      2.00000
      5       7.8015      0.00000
      6      11.5233      0.00000
      7      11.8556      0.00000
      8      12.6384      0.00000

 k-point  66 :       0.2763    0.5526    0.2763
  band No.  band energies     occupation 
      1      -3.6916      2.00000
      2      -0.1065      2.00000
      3       1.7749      2.00000
      4       4.2480      2.00000
      5       8.0170      0.00000
      6      11.1297      0.00000
      7      11.4867      0.00000
      8      12.3382      0.00000

 k-point  67 :       0.2566    0.5132    0.2566
  band No.  band energies     occupation 
      1      -3.9885      2.00000
      2       0.2347      2.00000
      3       1.9981      2.00000
      4       4.4434      2.00000
      5       8.2316      0.00000
      6      10.7580      0.00000
      7      11.1178      0.00000
      8      12.0746      0.00000

 k-point  68 :       0.2368    0.4737    0.2368
  band No.  band energies     occupation 
      1      -4.2778      2.00000
      2       0.6029      2.00000
      3       2.2604      2.00000
      4       4.6398      2.00000
      5       8.4357      0.00000
      6      10.4142      0.00000
      7      10.7669      0.00000
      8      11.8562      0.00000

 k-point  69 :       0.2171    0.4342    0.2171
  band No.  band energies     occupation 
      1      -4.5544      2.00000
      2       0.9978      2.00000
      3       2.5564      2.00000
      4       4.8329      2.00000
      5       8.6170      0.00000
      6      10.0980      0.00000
      7      10.4406      0.00000
      8      11.6907      0.00000

 k-point  70 :       0.1974    0.3947    0.1974
  band No.  band energies     occupation 
      1      -4.8150      2.00000
      2       1.4178      2.00000
      3       2.8793      2.00000
      4       5.0168      2.00000
      5       8.7617      0.00000
      6       9.8067      0.00000
      7      10.1348      0.00000
      8      11.5833      0.00000

 k-point  71 :       0.1776    0.3553    0.1776
  band No.  band energies     occupation 
      1      -5.0561      2.00000
      2       1.8622      2.00000
      3       3.2244      2.00000
      4       5.1872      2.00000
      5       8.8591      0.00000
      6       9.5427      0.00000
      7       9.8535      0.00000
      8      11.5315      0.00000

 k-point  72 :       0.1579    0.3158    0.1579
  band No.  band energies     occupation 
      1      -5.2757      2.00000
      2       2.3307      2.00000
      3       3.5869      2.00000
      4       5.3403      2.00000
      5       8.9048      0.00000
      6       9.3057      0.00000
      7       9.5927      0.00000
      8      11.5130      0.00000

 k-point  73 :       0.1382    0.2763    0.1382
  band No.  band energies     occupation 
      1      -5.4724      2.00000
      2       2.8189      2.00000
      3       3.9591      2.00000
      4       5.4723      2.00000
      5       8.9075      0.00000
      6       9.0962      0.00000
      7       9.3582      0.00000
      8      11.4770      0.00000

 k-point  74 :       0.1184    0.2368    0.1184
  band No.  band energies     occupation 
      1      -5.6449      2.00000
      2       3.3247      2.00000
      3       4.3342      2.00000
      4       5.5829      2.00000
      5       8.8774      0.00000
      6       8.9145      0.00000
      7       9.1424      0.00000
      8      11.3374      0.00000

 k-point  75 :       0.0987    0.1974    0.0987
  band No.  band energies     occupation 
      1      -5.7921      2.00000
      2       3.8435      2.00000
      3       4.7030      2.00000
      4       5.6706      2.00000
      5       8.7604      0.00000
      6       8.8278      0.00000
      7       8.9514      0.00000
      8      11.0226      0.00000

 k-point  76 :       0.0789    0.1579    0.0789
  band No.  band energies     occupation 
      1      -5.9134      2.00000
      2       4.3660      2.00000
      3       5.0513      2.00000
      4       5.7376      2.00000
      5       8.6341      0.00000
      6       8.7647      0.00000
      7       8.7808      0.00000
      8      10.5609      0.00000

 k-point  77 :       0.0592    0.1184    0.0592
  band No.  band energies     occupation 
      1      -6.0082      2.00000
      2       4.8765      2.00000
      3       5.3628      2.00000
      4       5.7861      2.00000
      5       8.5358      0.00000
      6       8.6343      0.00000
      7       8.6905      0.00000
      8      10.0523      0.00000

 k-point  78 :       0.0395    0.0789    0.0395
  band No.  band energies     occupation 
      1      -6.0762      2.00000
      2       5.3430      2.00000
      3       5.6154      2.00000
      4       5.8186      2.00000
      5       8.4657      0.00000
      6       8.5166      0.00000
      7       8.5950      0.00000
      8       9.6000      0.00000

 k-point  79 :       0.0197    0.0395    0.0197
  band No.  band energies     occupation 
      1      -6.1170      2.00000
      2       5.7017      2.00000
      3       5.7839      2.00000
      4       5.8372      1.99999
      5       8.4235      0.00000
      6       8.4377      0.00000
      7       8.4759      0.00000
      8       9.3037      0.00000

 k-point  80 :       0.0000    0.0000    0.0000
  band No.  band energies     occupation 
      1      -6.1307      2.00000
      2       5.8432      1.99998
      3       5.8432      1.99998
      4       5.8432      1.99998
      5       8.4095      0.00000
      6       8.4095      0.00000
      7       8.4095      0.00000
      8       9.2079      0.00000


--------------------------------------------------------------------------------------------------------


 soft charge-density along one line, spin component           1
         0         1         2         3         4         5         6         7         8         9
 total charge-density along one line
 
 pseudopotential strength for first ion, spin component:           1
 18.415  25.693   0.000   0.000   0.000   0.000   0.000   0.000
 25.693  35.850   0.000   0.000   0.000   0.000   0.000   0.000
  0.000   0.000   4.179   0.000   0.000   7.787   0.000   0.000
  0.000   0.000   0.000   4.179   0.000   0.000   7.787   0.000
  0.000   0.000   0.000   0.000   4.179   0.000   0.000   7.787
  0.000   0.000   7.787   0.000   0.000  14.522   0.000   0.000
  0.000   0.000   0.000   7.787   0.000   0.000  14.522   0.000
  0.000   0.000   0.000   0.000   7.787   0.000   0.000  14.522
 total augmentation occupancy for first ion, spin component:           1
  2.000   0.000   0.000   0.000   0.000   0.000   0.000   0.000
  0.000   0.000   0.000   0.000   0.000   0.000   0.000   0.000
  0.000   0.000   0.667   0.000   0.000   0.000   0.000   0.000
  0.000   0.000   0.000   0.667   0.000   0.000   0.000   0.000
  0.000   0.000   0.000   0.000   0.667   0.000   0.000   0.000
  0.000   0.000   0.000   0.000   0.000   0.000   0.000   0.000
  0.000   0.000   0.000   0.000   0.000   0.000   0.000   0.000
  0.000   0.000   0.000   0.000   0.000   0.000   0.000   0.000


------------------------ aborting loop because EDIFF is reached ----------------------------------------


 


 total charge     
 
# of ion     s       p       d       tot
----------------------------------------
  1        0.682   1.059   0.000   1.740
  2        0.682   1.059   0.000   1.740
------------------------------------------------
tot        1.363   2.118   0.000   3.481
 
    CHARGE:  cpu time    0.01: real time    0.01
    FORLOC:  cpu time    0.00: real time    0.00
    FORNL :  cpu time    0.01: real time    0.01
    STRESS:  cpu time    0.10: real time    0.10
    FORCOR:  cpu time    0.01: real time    0.01
    FORHAR:  cpu time    0.00: real time    0.00

  FORCE on cell =-STRESS in cart. coord.  units (eV):
  Direction    XX          YY          ZZ          XY          YZ          ZX
  --------------------------------------------------------------------------------------
  Alpha Z     3.36415     3.36415     3.36415
  Ewald     -76.18788   -76.18788   -76.18788     0.00000     0.00000     0.00000
  Hartree     5.82349     5.82349     5.82349     0.00000     0.00000     0.00000
  E(xc)     -25.47260   -25.47260   -25.47260     0.00001     0.00001     0.00001
  Local     -31.19122   -31.19122   -31.19122     0.00005     0.00005     0.00005
  n-local    78.05651    79.13451    74.03794    -1.28573    -1.89822    -0.84274
  augment   -11.00328   -11.00328   -11.00328    -0.00004    -0.00004    -0.00004
  Kinetic    63.31250    64.01491    58.78718    -1.75987    -1.31684    -0.93738
  Fock        0.00000     0.00000     0.00000     0.00000     0.00000     0.00000
  -------------------------------------------------------------------------------------
  Total       4.44718     4.44718     4.44718     0.00000     0.00000     0.00000
  in kB     178.01450   178.01450   178.01450     0.00000     0.00000     0.00000
  external pressure =      178.01 kB  Pullay stress =        0.00 kB


 VOLUME and BASIS-vectors are now :
 -----------------------------------------------------------------------------
  energy-cutoff  :      240.00
  volume of cell :       40.03
      direct lattice vectors                 reciprocal lattice vectors
     2.715000000  2.715000000  0.000000000     0.184162063  0.184162063 -0.184162063
     0.000000000  2.715000000  2.715000000    -0.184162063  0.184162063  0.184162063
     2.715000000  0.000000000  2.715000000     0.184162063 -0.184162063  0.184162063

  length of vectors
     3.839589822  3.839589822  3.839589822     0.318978049  0.318978049  0.318978049


 FORCES acting on ions
    electron-ion (+dipol)            ewald-force                    non-local-force                 convergence-correction
 -----------------------------------------------------------------------------------------------
   0.343E-05 0.386E-05 0.343E-05   0.158E-14 -.131E-14 -.117E-14   -.139E-16 -.572E-16 0.330E-16   0.151E-06 0.155E-06 0.151E-06
   -.343E-05 -.386E-05 -.343E-05   -.171E-14 0.105E-14 0.135E-14   0.538E-16 0.486E-16 -.520E-17   -.151E-06 -.155E-06 -.151E-06
 -----------------------------------------------------------------------------------------------
   0.174E-13 0.197E-13 0.170E-13   -.134E-15 -.256E-15 0.186E-15   0.399E-16 -.867E-17 0.278E-16   0.147E-14 -.307E-15 0.147E-14
 
 
 POSITION                                       TOTAL-FORCE (eV/Angst)
 -----------------------------------------------------------------------------------
      0.00000      0.00000      0.00000         0.000000      0.000000      0.000000
      1.35750      1.35750      1.35750         0.000000      0.000000      0.000000
 -----------------------------------------------------------------------------------
    total drift:                                0.000000      0.000000      0.000000


--------------------------------------------------------------------------------------------------------



  FREE ENERGIE OF THE ION-ELECTRON SYSTEM (eV)
  ---------------------------------------------------
  free  energy   TOTEN  =        -6.880551 eV

  energy  without entropy=       -6.880550  energy(sigma->0) =       -6.880551
 


--------------------------------------------------------------------------------------------------------


    POTLOK:  cpu time    0.01: real time    0.01


--------------------------------------------------------------------------------------------------------


 writing wavefunctions
     LOOP+:  cpu time    1.60: real time    1.70
    4ORBIT:  cpu time    0.00: real time    0.00
 


 total charge     
 
# of ion     s       p       d       tot
----------------------------------------
  1        0.682   1.059   0.000   1.740
  2        0.682   1.059   0.000   1.740
------------------------------------------------
tot        1.363   2.118   0.000   3.481
 

 total amount of memory used by VASP on root node    33608. kBytes
========================================================================

   base      :      30000. kBytes
   nonl-proj :       1792. kBytes
   fftplans  :        302. kBytes
   grid      :        577. kBytes
   one-center:          6. kBytes
   wavefun   :        931. kBytes
 
  
  
 General timing and accounting informations for this job:
 ========================================================
  
                  Total CPU time used (sec):        1.931
                            User time (sec):        1.713
                          System time (sec):        0.218
                         Elapsed time (sec):        2.482
  
                   Maximum memory used (kb):           0.
                   Average memory used (kb):           0.
  
                          Minor page faults:         5679
                          Major page faults:           83
                 Voluntary context switches:         2877
