<?xml version="1.0" encoding="ISO-8859-1"?>
<modeling>
 <generator>
  <i name="program" type="string">vasp </i>
  <i name="version" type="string">5.2.12  </i>
  <i name="subversion" type="string">26May11 complex  parallel </i>
  <i name="platform" type="string">LinuxIFC </i>
  <i name="date" type="string">2015 12 27 </i>
  <i name="time" type="string">23:18:51 </i>
 </generator>
 <incar>
  <i type="string" name="SYSTEM"> fcc Si</i>
  <i type="string" name="PREC">normal</i>
  <i type="int" name="ICHARG">    11</i>
  <i name="ENCUT">    240.00000000</i>
  <i type="int" name="ISMEAR">     0</i>
  <i name="SIGMA">      0.10000000</i>
  <i type="logical" name="LORBIT"> F  </i>
  <i type="logical" name="LPEAD"> F  </i>
  <i type="logical" name="LCALCPOL"> F  </i>
  <i type="logical" name="LCALCEPS"> F  </i>
  <v name="EFIELD_PEAD">      0.00000000      0.00000000      0.00000000</v>
  <i type="logical" name="LEFG"> F  </i>
  <v name="QUAD_EFG">      1.00000000</v>
  <i type="logical" name="LRHFATM"> F  </i>
  <i type="string" name="METAGGA">--</i>
  <i type="int" name="LMAXTAU">     0</i>
 </incar>
 <kpoints>
  <generation param="listgenerated">
   <i name="divisions" type="int">      20 </i>
   <v>       0.50000000       0.50000000       0.50000000 </v>
   <v>       0.00000000       0.00000000       0.00000000 </v>
   <v>       0.00000000       0.50000000       0.50000000 </v>
   <v>       0.37500000       0.75000000       0.37500000 </v>
   <v>       0.00000000       0.00000000       0.00000000 </v>
  </generation>
  <varray name="kpointlist" >
   <v>       0.50000000       0.50000000       0.50000000 </v>
   <v>       0.47368421       0.47368421       0.47368421 </v>
   <v>       0.44736842       0.44736842       0.44736842 </v>
   <v>       0.42105263       0.42105263       0.42105263 </v>
   <v>       0.39473684       0.39473684       0.39473684 </v>
   <v>       0.36842105       0.36842105       0.36842105 </v>
   <v>       0.34210526       0.34210526       0.34210526 </v>
   <v>       0.31578947       0.31578947       0.31578947 </v>
   <v>       0.28947368       0.28947368       0.28947368 </v>
   <v>       0.26315789       0.26315789       0.26315789 </v>
   <v>       0.23684211       0.23684211       0.23684211 </v>
   <v>       0.21052632       0.21052632       0.21052632 </v>
   <v>       0.18421053       0.18421053       0.18421053 </v>
   <v>       0.15789474       0.15789474       0.15789474 </v>
   <v>       0.13157895       0.13157895       0.13157895 </v>
   <v>       0.10526316       0.10526316       0.10526316 </v>
   <v>       0.07894737       0.07894737       0.07894737 </v>
   <v>       0.05263158       0.05263158       0.05263158 </v>
   <v>       0.02631579       0.02631579       0.02631579 </v>
   <v>       0.00000000       0.00000000       0.00000000 </v>
   <v>       0.00000000       0.00000000       0.00000000 </v>
   <v>       0.00000000       0.02631579       0.02631579 </v>
   <v>       0.00000000       0.05263158       0.05263158 </v>
   <v>       0.00000000       0.07894737       0.07894737 </v>
   <v>       0.00000000       0.10526316       0.10526316 </v>
   <v>       0.00000000       0.13157895       0.13157895 </v>
   <v>       0.00000000       0.15789474       0.15789474 </v>
   <v>       0.00000000       0.18421053       0.18421053 </v>
   <v>       0.00000000       0.21052632       0.21052632 </v>
   <v>       0.00000000       0.23684211       0.23684211 </v>
   <v>       0.00000000       0.26315789       0.26315789 </v>
   <v>       0.00000000       0.28947368       0.28947368 </v>
   <v>       0.00000000       0.31578947       0.31578947 </v>
   <v>       0.00000000       0.34210526       0.34210526 </v>
   <v>       0.00000000       0.36842105       0.36842105 </v>
   <v>       0.00000000       0.39473684       0.39473684 </v>
   <v>       0.00000000       0.42105263       0.42105263 </v>
   <v>       0.00000000       0.44736842       0.44736842 </v>
   <v>       0.00000000       0.47368421       0.47368421 </v>
   <v>       0.00000000       0.50000000       0.50000000 </v>
   <v>       0.00000000       0.50000000       0.50000000 </v>
   <v>       0.01315789       0.50657895       0.50657895 </v>
   <v>       0.02631579       0.51315789       0.51315789 </v>
   <v>       0.03947368       0.51973684       0.51973684 </v>
   <v>       0.05263158       0.52631579       0.52631579 </v>
   <v>       0.06578947       0.53289474       0.53289474 </v>
   <v>       0.07894737       0.53947368       0.53947368 </v>
   <v>       0.09210526       0.54605263       0.54605263 </v>
   <v>       0.10526316       0.55263158       0.55263158 </v>
   <v>       0.11842105       0.55921053       0.55921053 </v>
   <v>       0.13157895       0.56578947       0.56578947 </v>
   <v>       0.14473684       0.57236842       0.57236842 </v>
   <v>       0.15789474       0.57894737       0.57894737 </v>
   <v>       0.17105263       0.58552632       0.58552632 </v>
   <v>       0.18421053       0.59210526       0.59210526 </v>
   <v>       0.19736842       0.59868421       0.59868421 </v>
   <v>       0.21052632       0.60526316       0.60526316 </v>
   <v>       0.22368421       0.61184211       0.61184211 </v>
   <v>       0.23684211       0.61842105       0.61842105 </v>
   <v>       0.25000000       0.62500000       0.62500000 </v>
   <v>       0.37500000       0.75000000       0.37500000 </v>
   <v>       0.35526316       0.71052632       0.35526316 </v>
   <v>       0.33552632       0.67105263       0.33552632 </v>
   <v>       0.31578947       0.63157895       0.31578947 </v>
   <v>       0.29605263       0.59210526       0.29605263 </v>
   <v>       0.27631579       0.55263158       0.27631579 </v>
   <v>       0.25657895       0.51315789       0.25657895 </v>
   <v>       0.23684211       0.47368421       0.23684211 </v>
   <v>       0.21710526       0.43421053       0.21710526 </v>
   <v>       0.19736842       0.39473684       0.19736842 </v>
   <v>       0.17763158       0.35526316       0.17763158 </v>
   <v>       0.15789474       0.31578947       0.15789474 </v>
   <v>       0.13815789       0.27631579       0.13815789 </v>
   <v>       0.11842105       0.23684211       0.11842105 </v>
   <v>       0.09868421       0.19736842       0.09868421 </v>
   <v>       0.07894737       0.15789474       0.07894737 </v>
   <v>       0.05921053       0.11842105       0.05921053 </v>
   <v>       0.03947368       0.07894737       0.03947368 </v>
   <v>       0.01973684       0.03947368       0.01973684 </v>
   <v>       0.00000000       0.00000000       0.00000000 </v>
  </varray>
  <varray name="weights" >
   <v>       0.01250000 </v>
   <v>       0.01250000 </v>
   <v>       0.01250000 </v>
   <v>       0.01250000 </v>
   <v>       0.01250000 </v>
   <v>       0.01250000 </v>
   <v>       0.01250000 </v>
   <v>       0.01250000 </v>
   <v>       0.01250000 </v>
   <v>       0.01250000 </v>
   <v>       0.01250000 </v>
   <v>       0.01250000 </v>
   <v>       0.01250000 </v>
   <v>       0.01250000 </v>
   <v>       0.01250000 </v>
   <v>       0.01250000 </v>
   <v>       0.01250000 </v>
   <v>       0.01250000 </v>
   <v>       0.01250000 </v>
   <v>       0.01250000 </v>
   <v>       0.01250000 </v>
   <v>       0.01250000 </v>
   <v>       0.01250000 </v>
   <v>       0.01250000 </v>
   <v>       0.01250000 </v>
   <v>       0.01250000 </v>
   <v>       0.01250000 </v>
   <v>       0.01250000 </v>
   <v>       0.01250000 </v>
   <v>       0.01250000 </v>
   <v>       0.01250000 </v>
   <v>       0.01250000 </v>
   <v>       0.01250000 </v>
   <v>       0.01250000 </v>
   <v>       0.01250000 </v>
   <v>       0.01250000 </v>
   <v>       0.01250000 </v>
   <v>       0.01250000 </v>
   <v>       0.01250000 </v>
   <v>       0.01250000 </v>
   <v>       0.01250000 </v>
   <v>       0.01250000 </v>
   <v>       0.01250000 </v>
   <v>       0.01250000 </v>
   <v>       0.01250000 </v>
   <v>       0.01250000 </v>
   <v>       0.01250000 </v>
   <v>       0.01250000 </v>
   <v>       0.01250000 </v>
   <v>       0.01250000 </v>
   <v>       0.01250000 </v>
   <v>       0.01250000 </v>
   <v>       0.01250000 </v>
   <v>       0.01250000 </v>
   <v>       0.01250000 </v>
   <v>       0.01250000 </v>
   <v>       0.01250000 </v>
   <v>       0.01250000 </v>
   <v>       0.01250000 </v>
   <v>       0.01250000 </v>
   <v>       0.01250000 </v>
   <v>       0.01250000 </v>
   <v>       0.01250000 </v>
   <v>       0.01250000 </v>
   <v>       0.01250000 </v>
   <v>       0.01250000 </v>
   <v>       0.01250000 </v>
   <v>       0.01250000 </v>
   <v>       0.01250000 </v>
   <v>       0.01250000 </v>
   <v>       0.01250000 </v>
   <v>       0.01250000 </v>
   <v>       0.01250000 </v>
   <v>       0.01250000 </v>
   <v>       0.01250000 </v>
   <v>       0.01250000 </v>
   <v>       0.01250000 </v>
   <v>       0.01250000 </v>
   <v>       0.01250000 </v>
   <v>       0.01250000 </v>
  </varray>
 </kpoints>
 <parameters>
  <separator name="general" >
   <i type="string" name="SYSTEM">fcc Si</i>
   <i type="logical" name="LCOMPAT"> F  </i>
  </separator>
  <separator name="electronic" >
   <i type="string" name="PREC">normal</i>
   <i name="ENMAX">    240.00000000</i>
   <i name="ENAUG">    322.06900000</i>
   <i name="EDIFF">      0.00010000</i>
   <i type="int" name="IALGO">    38</i>
   <i type="int" name="IWAVPR">    10</i>
   <i type="int" name="NBANDS">     8</i>
   <i name="NELECT">      8.00000000</i>
   <i type="int" name="TURBO">     0</i>
   <i type="int" name="IRESTART">     0</i>
   <i type="int" name="NREBOOT">     0</i>
   <i type="int" name="NMIN">     0</i>
   <i name="EREF">      0.00000000</i>
   <separator name="electronic smearing" >
    <i type="int" name="ISMEAR">     0</i>
    <i name="SIGMA">      0.10000000</i>
    <i name="KSPACING">      0.50000000</i>
    <i type="logical" name="KGAMMA"> T  </i>
   </separator>
   <separator name="electronic projectors" >
    <i type="logical" name="LREAL"> F  </i>
    <v name="ROPT">      0.00000000</v>
    <i type="int" name="LMAXPAW">  -100</i>
    <i type="int" name="LMAXMIX">     2</i>
   </separator>
   <separator name="electronic startup" >
    <i type="int" name="ISTART">     1</i>
    <i type="int" name="ICHARG">    11</i>
    <i type="int" name="INIWAV">     1</i>
   </separator>
   <separator name="electronic spin" >
    <i type="int" name="ISPIN">     1</i>
    <i type="logical" name="LNONCOLLINEAR"> F  </i>
    <v name="MAGMOM">      1.00000000      1.00000000</v>
    <i name="NUPDOWN">     -1.00000000</i>
    <i type="logical" name="LSORBIT"> F  </i>
    <v name="SAXIS">      0.00000000      0.00000000      1.00000000</v>
    <i type="logical" name="LSPIRAL"> F  </i>
    <v name="QSPIRAL">      0.00000000      0.00000000      0.00000000</v>
    <i type="logical" name="LZEROZ"> F  </i>
   </separator>
   <separator name="electronic exchange-correlation" >
    <i type="logical" name="LASPH"> F  </i>
    <i type="logical" name="LMETAGGA"> F  </i>
   </separator>
   <separator name="electronic convergence" >
    <i type="int" name="NELM">    60</i>
    <i type="int" name="NELMDL">     0</i>
    <i type="int" name="NELMIN">     2</i>
    <i name="ENINI">    240.00000000</i>
    <separator name="electronic convergence detail" >
     <i type="logical" name="LDIAG"> T  </i>
     <i type="logical" name="LSUBROT"> T  </i>
     <i name="WEIMIN">      0.00000000</i>
     <i name="EBREAK">      0.00000313</i>
     <i name="DEPER">      0.30000000</i>
     <i type="int" name="NRMM">     4</i>
     <i name="TIME">      0.40000000</i>
    </separator>
   </separator>
   <separator name="electronic mixer" >
    <i name="AMIX">      0.40000000</i>
    <i name="BMIX">      1.00000000</i>
    <i name="AMIN">      0.10000000</i>
    <i name="AMIX_MAG">      1.60000000</i>
    <i name="BMIX_MAG">      1.00000000</i>
    <separator name="electronic mixer details" >
     <i type="int" name="IMIX">     4</i>
     <i type="int" name="MAXMIX">   -45</i>
     <i name="WC">    100.00000000</i>
     <i type="int" name="INIMIX">     1</i>
     <i type="int" name="MIXPRE">     1</i>
     <i type="int" name="MREMOVE">     5</i>
    </separator>
   </separator>
   <separator name="electronic dipolcorrection" >
    <i type="logical" name="LDIPOL"> F  </i>
    <i type="logical" name="LMONO"> F  </i>
    <i type="int" name="IDIPOL">     0</i>
    <i name="EPSILON">      1.00000000</i>
    <v name="DIPOL">   -100.00000000   -100.00000000   -100.00000000</v>
    <i name="EFIELD">      0.00000000</i>
   </separator>
  </separator>
  <separator name="grids" >
   <i type="int" name="NGX">    16</i>
   <i type="int" name="NGY">    16</i>
   <i type="int" name="NGZ">    16</i>
   <i type="int" name="NGXF">    32</i>
   <i type="int" name="NGYF">    32</i>
   <i type="int" name="NGZF">    32</i>
   <i type="logical" name="ADDGRID"> F  </i>
  </separator>
  <separator name="ionic" >
   <i type="int" name="NSW">     0</i>
   <i type="int" name="IBRION">    -1</i>
   <i type="int" name="ISIF">     2</i>
   <i name="PSTRESS">      0.00000000</i>
   <i name="EDIFFG">      0.00100000</i>
   <i type="int" name="NFREE">     0</i>
   <i name="POTIM">      0.50000000</i>
   <i name="SMASS">     -3.00000000</i>
   <i name="SCALEE">      1.00000000</i>
  </separator>
  <separator name="ionic md" >
   <i name="TEBEG">      0.00010000</i>
   <i name="TEEND">      0.00010000</i>
   <i type="int" name="NBLOCK">     1</i>
   <i type="int" name="KBLOCK">     1</i>
   <i type="int" name="NPACO">   256</i>
   <i name="APACO">     16.00000000</i>
  </separator>
  <separator name="symmetry" >
   <i type="int" name="ISYM">     2</i>
   <i name="SYMPREC">      0.00001000</i>
  </separator>
  <separator name="dos" >
   <i type="logical" name="LORBIT"> F  </i>
   <v name="RWIGS">     -1.00000000</v>
   <i type="int" name="NEDOS">   301</i>
   <i name="EMIN">     10.00000000</i>
   <i name="EMAX">    -10.00000000</i>
   <i name="EFERMI">      0.00000000</i>
  </separator>
  <separator name="writing" >
   <i type="int" name="NWRITE">     2</i>
   <i type="logical" name="LWAVE"> T  </i>
   <i type="logical" name="LCHARG"> T  </i>
   <i type="logical" name="LPARD"> F  </i>
   <i type="logical" name="LVTOT"> F  </i>
   <i type="logical" name="LVHAR"> F  </i>
   <i type="logical" name="LELF"> F  </i>
   <i type="logical" name="LOPTICS"> F  </i>
   <v name="STM">      0.00000000      0.00000000      0.00000000      0.00000000      0.00000000      0.00000000      0.00000000</v>
  </separator>
  <separator name="performance" >
   <i type="int" name="NPAR">     4</i>
   <i type="int" name="NSIM">     4</i>
   <i type="int" name="NBLK">    -1</i>
   <i type="logical" name="LPLANE"> T  </i>
   <i type="logical" name="LSCALAPACK"> F  </i>
   <i type="logical" name="LSCAAWARE"> F  </i>
   <i type="logical" name="LSCALU"> F  </i>
   <i type="logical" name="LASYNC"> F  </i>
   <i type="logical" name="LORBITALREAL"> F  </i>
  </separator>
  <separator name="miscellaneous" >
   <i type="int" name="IDIOT">     3</i>
   <i type="logical" name="LMUSIC"> F  </i>
   <v name="POMASS">     28.08500000</v>
   <v name="DARWINR">      0.00000000</v>
   <v name="DARWINV">      1.00000000</v>
   <i type="logical" name="LCORR"> T  </i>
  </separator>
  <i type="logical" name="GGA_COMPAT"> T  </i>
  <i type="logical" name="LBERRY"> F  </i>
  <i type="int" name="ICORELEVEL">     0</i>
  <i type="logical" name="LDAU"> F  </i>
  <i type="int" name="I_CONSTRAINED_M">     0</i>
  <separator name="electronic exchange-correlation" >
   <i type="string" name="GGA">--</i>
   <i type="int" name="VOSKOWN">     0</i>
   <i type="logical" name="LHFCALC"> F  </i>
   <i type="string" name="PRECFOCK"></i>
   <i type="logical" name="LHFONE"> F  </i>
   <i type="logical" name="LRHFCALC"> F  </i>
   <i type="logical" name="LTHOMAS"> F  </i>
   <i type="logical" name="LMODELHF"> F  </i>
   <i name="ENCUT4O">     -1.00000000</i>
   <i type="int" name="EXXOEP">     0</i>
   <i type="int" name="FOURORBIT">     0</i>
   <i name="AEXX">      0.00000000</i>
   <i name="HFALPHA">      0.00000000</i>
   <i name="ALDAX">      1.00000000</i>
   <i name="AGGAX">      1.00000000</i>
   <i name="ALDAC">      1.00000000</i>
   <i name="AGGAC">      1.00000000</i>
   <i type="int" name="NKREDX">     1</i>
   <i type="int" name="NKREDY">     1</i>
   <i type="int" name="NKREDZ">     1</i>
   <i type="logical" name="SHIFTRED"> F  </i>
   <i type="logical" name="ODDONLY"> F  </i>
   <i type="logical" name="EVENONLY"> F  </i>
   <i type="int" name="LMAXFOCK">     0</i>
   <i type="int" name="NMAXFOCKAE">     0</i>
   <i type="logical" name="LFOCKAEDFT"> F  </i>
   <i name="HFSCREEN">      0.00000000</i>
   <i name="HFSCREENC">      0.00000000</i>
  </separator>
  <separator name="model GW" >
   <i type="int" name="MODEL_GW">     0</i>
   <i name="MODEL_EPS0">     12.00772552</i>
   <i name="MODEL_ALPHA">      1.00000000</i>
  </separator>
  <separator name="linear response parameters" >
   <i type="logical" name="LEPSILON"> F  </i>
   <i type="logical" name="LRPA"> F  </i>
   <i type="logical" name="LNABLA"> F  </i>
   <i type="logical" name="LVEL"> F  </i>
   <i type="int" name="KINTER">     0</i>
   <i name="CSHIFT">      0.10000000</i>
   <i name="OMEGAMAX">     -1.00000000</i>
  </separator>
  <separator name="orbital magnetization" >
   <i type="logical" name="NUCIND"> F  </i>
   <v name="MAGPOS">      0.00000000      0.00000000      0.00000000</v>
   <i type="logical" name="LNICSALL"> T  </i>
   <i type="logical" name="ORBITALMAG"> F  </i>
   <i type="logical" name="LMAGBLOCH"> F  </i>
   <i type="logical" name="LCHIMAG"> F  </i>
   <i type="logical" name="LGAUGE"> T  </i>
   <i type="int" name="MAGATOM">     0</i>
   <v name="MAGDIPOL">      0.00000000      0.00000000      0.00000000</v>
   <v name="AVECCONST">      0.00000000      0.00000000      0.00000000</v>
  </separator>
  <separator name="response functions" >
   <i type="logical" name="LADDER"> F  </i>
   <i type="logical" name="LHARTREE"> T  </i>
   <i type="int" name="IBSE">     0</i>
   <i type="logical" name="LTCTE"> F  </i>
   <i type="logical" name="LTETE"> F  </i>
   <i type="logical" name="L2ORDER"> F  </i>
   <i type="logical" name="LUSEW"> F  </i>
   <i name="ENCUTGW">     -2.00000000</i>
   <i name="ENCUTGWSOFT">     -2.00000000</i>
   <i name="ENCUTLF">     -1.00000000</i>
   <i type="int" name="LMAXMP2">    -1</i>
   <i name="SCISSOR">      0.00000000</i>
   <i type="int" name="NOMEGA">     0</i>
   <i type="int" name="NOMEGAR">     0</i>
   <i type="int" name="NBANDSGW">    -1</i>
   <i type="int" name="NBANDSO">    -1</i>
   <i type="int" name="NBANDSV">    -1</i>
   <i name="OPTEMAX">      0.00000000</i>
   <i type="int" name="NELM">     1</i>
   <i type="int" name="DIM">     3</i>
   <i type="int" name="ANTIRES">     0</i>
   <i name="OMEGAMAX">    -30.00000000</i>
   <i name="OMEGATL">   -200.00000000</i>
   <i type="int" name="OMEGAGRID">     0</i>
   <i name="CSHIFT">     -0.10000000</i>
   <i type="logical" name="SELFENERGY"> F  </i>
   <i type="logical" name="LSPECTRAL"> F  </i>
   <i type="logical" name="ODDONLYGW"> F  </i>
   <i type="logical" name="EVENONLYGW"> F  </i>
   <i type="int" name="NKREDLFX">     1</i>
   <i type="int" name="NKREDLFY">     1</i>
   <i type="int" name="NKREDLFZ">     1</i>
   <i type="int" name="MAXMEM">  1800</i>
   <i type="int" name="TELESCOPE">     0</i>
  </separator>
 </parameters>
 <atominfo>
  <atoms>       2 </atoms>
  <types>       1 </types>
  <array name="atoms" >
   <dimension dim="1">ion</dimension>
   <field type="string">element</field>
   <field type="int">atomtype</field>
   <set>
    <rc><c>Si</c><c>   1</c></rc>
    <rc><c>Si</c><c>   1</c></rc>
   </set>
  </array>
  <array name="atomtypes" >
   <dimension dim="1">type</dimension>
   <field type="int">atomspertype</field>
   <field type="string">element</field>
   <field>mass</field>
   <field>valence</field>
   <field type="string">pseudopotential</field>
   <set>
    <rc><c>   2</c><c>Si</c><c>     28.08500000</c><c>      4.00000000</c><c>  PAW_PBE Si 05Jan2001                  </c></rc>
   </set>
  </array>
 </atominfo>
 <structure name="initialpos" >
  <crystal>
   <varray name="basis" >
    <v>       2.71500000       2.71500000       0.00000000 </v>
    <v>       0.00000000       2.71500000       2.71500000 </v>
    <v>       2.71500000       0.00000000       2.71500000 </v>
   </varray>
   <i name="volume">     40.02575175 </i>
   <varray name="rec_basis" >
    <v>       0.18416206       0.18416206      -0.18416206 </v>
    <v>      -0.18416206       0.18416206       0.18416206 </v>
    <v>       0.18416206      -0.18416206       0.18416206 </v>
   </varray>
  </crystal>
  <varray name="positions" >
   <v>       0.00000000       0.00000000       0.00000000 </v>
   <v>       0.25000000       0.25000000       0.25000000 </v>
  </varray>
 </structure>
 <calculation>
  <scstep>
   <time name="dav">    0.30    0.30</time>
   <time name="total">    0.31    0.33</time>
   <energy>
    <i name="alphaZ">      3.36414726 </i>
    <i name="ewald">   -228.56352493 </i>
    <i name="hartreedc">    -14.90601773 </i>
    <i name="XCdc">    -17.95344313 </i>
    <i name="pawpsdc">   1032.75528638 </i>
    <i name="pawaedc">   -997.79993535 </i>
    <i name="eentropy">     -0.00444085 </i>
    <i name="bandstr">     10.35454481 </i>
    <i name="atom">    206.12155316 </i>
    <i name="e_fr_energy">     -6.63183038 </i>
    <i name="e_wo_entrp">     -6.62738952 </i>
    <i name="e_0_energy">     -6.62960995 </i>
   </energy>
  </scstep>
  <scstep>
   <time name="dav">    0.35    0.35</time>
   <time name="total">    0.36    0.36</time>
   <energy>
    <i name="e_fr_energy">     -6.87981507 </i>
    <i name="e_wo_entrp">     -6.87981347 </i>
    <i name="e_0_energy">     -6.87981427 </i>
   </energy>
  </scstep>
  <scstep>
   <time name="dav">    0.38    0.38</time>
   <time name="total">    0.39    0.39</time>
   <energy>
    <i name="e_fr_energy">     -6.88054963 </i>
    <i name="e_wo_entrp">     -6.88054809 </i>
    <i name="e_0_energy">     -6.88054886 </i>
   </energy>
  </scstep>
  <scstep>
   <time name="dav">    0.29    0.29</time>
   <time name="total">    0.30    0.30</time>
   <energy>
    <i name="alphaZ">      3.36414726 </i>
    <i name="ewald">   -228.56352493 </i>
    <i name="hartreedc">    -14.90601773 </i>
    <i name="XCdc">    -17.95344313 </i>
    <i name="pawpsdc">   1032.75528638 </i>
    <i name="pawaedc">   -997.79993535 </i>
    <i name="eentropy">     -0.00000154 </i>
    <i name="bandstr">     10.10138437 </i>
    <i name="atom">    206.12155316 </i>
    <i name="e_fr_energy">     -6.88055150 </i>
    <i name="e_wo_entrp">     -6.88054996 </i>
    <i name="e_0_energy">     -6.88055073 </i>
   </energy>
  </scstep>
  <parameters_embedded>
   <separator name="dft+d2" >
    <i type="logical" name="LVDW"> F  </i>
   </separator>
  </parameters_embedded>
  <structure>
   <crystal>
    <varray name="basis" >
     <v>       2.71500000       2.71500000       0.00000000 </v>
     <v>       0.00000000       2.71500000       2.71500000 </v>
     <v>       2.71500000       0.00000000       2.71500000 </v>
    </varray>
    <i name="volume">     40.02575175 </i>
    <varray name="rec_basis" >
     <v>       0.18416206       0.18416206      -0.18416206 </v>
     <v>      -0.18416206       0.18416206       0.18416206 </v>
     <v>       0.18416206      -0.18416206       0.18416206 </v>
    </varray>
   </crystal>
   <varray name="positions" >
    <v>       0.00000000       0.00000000       0.00000000 </v>
    <v>       0.25000000       0.25000000       0.25000000 </v>
   </varray>
  </structure>
  <varray name="forces" >
   <v>       0.00000000       0.00000000       0.00000000 </v>
   <v>       0.00000000       0.00000000       0.00000000 </v>
  </varray>
  <varray name="stress" >
   <v>     178.01449947       0.00000000       0.00000000 </v>
   <v>       0.00000000     178.01449947       0.00000000 </v>
   <v>       0.00000000       0.00000000     178.01449947 </v>
  </varray>
  <energy>
   <i name="e_fr_energy">     -6.88055150 </i>
   <i name="e_wo_entrp">     -6.88055073 </i>
   <i name="e_0_energy">     -0.00000154 </i>
  </energy>
  <time name="totalsc">    1.60    1.70</time>
  <eigenvalues>
   <array>
    <dimension dim="1">band</dimension>
    <dimension dim="2">kpoint</dimension>
    <dimension dim="3">spin</dimension>
    <field>eigene</field>
    <field>occ</field>
    <set>
     <set comment="spin 1">
      <set comment="kpoint 1">
       <r>   -3.7980    1.0000 </r>
       <r>   -1.1374    1.0000 </r>
       <r>    4.6381    1.0000 </r>
       <r>    4.6381    1.0000 </r>
       <r>    7.3840    0.0000 </r>
       <r>    9.1950    0.0000 </r>
       <r>    9.1950    0.0000 </r>
       <r>   13.5683    0.0000 </r>
      </set>
      <set comment="kpoint 2">
       <r>   -3.8372    1.0000 </r>
       <r>   -1.0810    1.0000 </r>
       <r>    4.6431    1.0000 </r>
       <r>    4.6431    1.0000 </r>
       <r>    7.3914    0.0000 </r>
       <r>    9.2008    0.0000 </r>
       <r>    9.2008    0.0000 </r>
       <r>   13.5775    0.0000 </r>
      </set>
      <set comment="kpoint 3">
       <r>   -3.9457    1.0000 </r>
       <r>   -0.9211    1.0000 </r>
       <r>    4.6581    1.0000 </r>
       <r>    4.6581    1.0000 </r>
       <r>    7.4090    0.0000 </r>
       <r>    9.2198    0.0000 </r>
       <r>    9.2198    0.0000 </r>
       <r>   13.6034    0.0000 </r>
      </set>
      <set comment="kpoint 4">
       <r>   -4.1028    1.0000 </r>
       <r>   -0.6784    1.0000 </r>
       <r>    4.6830    1.0000 </r>
       <r>    4.6830    1.0000 </r>
       <r>    7.4374    0.0000 </r>
       <r>    9.2463    0.0000 </r>
       <r>    9.2463    0.0000 </r>
       <r>   13.6434    0.0000 </r>
      </set>
      <set comment="kpoint 5">
       <r>   -4.2887    1.0000 </r>
       <r>   -0.3738    1.0000 </r>
       <r>    4.7177    1.0000 </r>
       <r>    4.7177    1.0000 </r>
       <r>    7.4767    0.0000 </r>
       <r>    9.2797    0.0000 </r>
       <r>    9.2797    0.0000 </r>
       <r>   13.6908    0.0000 </r>
      </set>
      <set comment="kpoint 6">
       <r>   -4.4866    1.0000 </r>
       <r>   -0.0218    1.0000 </r>
       <r>    4.7624    1.0000 </r>
       <r>    4.7624    1.0000 </r>
       <r>    7.5273    0.0000 </r>
       <r>    9.3169    0.0000 </r>
       <r>    9.3169    0.0000 </r>
       <r>   13.7329    0.0000 </r>
      </set>
      <set comment="kpoint 7">
       <r>   -4.6873    1.0000 </r>
       <r>    0.3647    1.0000 </r>
       <r>    4.8162    1.0000 </r>
       <r>    4.8162    1.0000 </r>
       <r>    7.5883    0.0000 </r>
       <r>    9.3510    0.0000 </r>
       <r>    9.3510    0.0000 </r>
       <r>   13.9899    0.0000 </r>
      </set>
      <set comment="kpoint 8">
       <r>   -4.8836    1.0000 </r>
       <r>    0.7794    1.0000 </r>
       <r>    4.8800    1.0000 </r>
       <r>    4.8800    1.0000 </r>
       <r>    7.6595    0.0000 </r>
       <r>    9.3781    0.0000 </r>
       <r>    9.3781    0.0000 </r>
       <r>   13.6565    0.0000 </r>
      </set>
      <set comment="kpoint 9">
       <r>   -5.0713    1.0000 </r>
       <r>    1.2174    1.0000 </r>
       <r>    4.9533    1.0000 </r>
       <r>    4.9533    1.0000 </r>
       <r>    7.7403    0.0000 </r>
       <r>    9.3899    0.0000 </r>
       <r>    9.3899    0.0000 </r>
       <r>   13.3575    0.0000 </r>
      </set>
      <set comment="kpoint 10">
       <r>   -5.2476    1.0000 </r>
       <r>    1.6741    1.0000 </r>
       <r>    5.0347    1.0000 </r>
       <r>    5.0347    1.0000 </r>
       <r>    7.8294    0.0000 </r>
       <r>    9.3763    0.0000 </r>
       <r>    9.3763    0.0000 </r>
       <r>   12.9791    0.0000 </r>
      </set>
      <set comment="kpoint 11">
       <r>   -5.4104    1.0000 </r>
       <r>    2.1469    1.0000 </r>
       <r>    5.1240    1.0000 </r>
       <r>    5.1240    1.0000 </r>
       <r>    7.9260    0.0000 </r>
       <r>    9.3308    0.0000 </r>
       <r>    9.3308    0.0000 </r>
       <r>   12.5459    0.0000 </r>
      </set>
      <set comment="kpoint 12">
       <r>   -5.5583    1.0000 </r>
       <r>    2.6317    1.0000 </r>
       <r>    5.2205    1.0000 </r>
       <r>    5.2205    1.0000 </r>
       <r>    8.0273    0.0000 </r>
       <r>    9.2535    0.0000 </r>
       <r>    9.2535    0.0000 </r>
       <r>   12.0880    0.0000 </r>
      </set>
      <set comment="kpoint 13">
       <r>   -5.6904    1.0000 </r>
       <r>    3.1264    1.0000 </r>
       <r>    5.3211    1.0000 </r>
       <r>    5.3211    1.0000 </r>
       <r>    8.1315    0.0000 </r>
       <r>    9.1451    0.0000 </r>
       <r>    9.1451    0.0000 </r>
       <r>   11.6182    0.0000 </r>
      </set>
      <set comment="kpoint 14">
       <r>   -5.8061    1.0000 </r>
       <r>    3.6236    1.0000 </r>
       <r>    5.4243    1.0000 </r>
       <r>    5.4243    1.0000 </r>
       <r>    8.2314    0.0000 </r>
       <r>    9.0140    0.0000 </r>
       <r>    9.0140    0.0000 </r>
       <r>   11.1414    0.0000 </r>
      </set>
      <set comment="kpoint 15">
       <r>   -5.9046    1.0000 </r>
       <r>    4.1185    1.0000 </r>
       <r>    5.5267    1.0000 </r>
       <r>    5.5267    1.0000 </r>
       <r>    8.3258    0.0000 </r>
       <r>    8.8714    0.0000 </r>
       <r>    8.8714    0.0000 </r>
       <r>   10.6710    0.0000 </r>
      </set>
      <set comment="kpoint 16">
       <r>   -5.9856    1.0000 </r>
       <r>    4.6011    1.0000 </r>
       <r>    5.6255    1.0000 </r>
       <r>    5.6255    1.0000 </r>
       <r>    8.4068    0.0000 </r>
       <r>    8.7298    0.0000 </r>
       <r>    8.7298    0.0000 </r>
       <r>   10.2191    0.0000 </r>
      </set>
      <set comment="kpoint 17">
       <r>   -6.0490    1.0000 </r>
       <r>    5.0544    1.0000 </r>
       <r>    5.7123    1.0000 </r>
       <r>    5.7123    1.0000 </r>
       <r>    8.4605    0.0000 </r>
       <r>    8.6018    0.0000 </r>
       <r>    8.6018    0.0000 </r>
       <r>    9.8076    0.0000 </r>
      </set>
      <set comment="kpoint 18">
       <r>   -6.0943    1.0000 </r>
       <r>    5.4492    1.0000 </r>
       <r>    5.7819    1.0000 </r>
       <r>    5.7819    1.0000 </r>
       <r>    8.4712    0.0000 </r>
       <r>    8.4992    0.0000 </r>
       <r>    8.4992    0.0000 </r>
       <r>    9.4761    0.0000 </r>
      </set>
      <set comment="kpoint 19">
       <r>   -6.1216    1.0000 </r>
       <r>    5.7356    1.0000 </r>
       <r>    5.8273    1.0000 </r>
       <r>    5.8273    1.0000 </r>
       <r>    8.4326    0.0000 </r>
       <r>    8.4326    0.0000 </r>
       <r>    8.4368    0.0000 </r>
       <r>    9.2720    0.0000 </r>
      </set>
      <set comment="kpoint 20">
       <r>   -6.1307    1.0000 </r>
       <r>    5.8432    1.0000 </r>
       <r>    5.8432    1.0000 </r>
       <r>    5.8432    1.0000 </r>
       <r>    8.4095    0.0000 </r>
       <r>    8.4095    0.0000 </r>
       <r>    8.4095    0.0000 </r>
       <r>    9.2079    0.0000 </r>
      </set>
      <set comment="kpoint 21">
       <r>   -6.1307    1.0000 </r>
       <r>    5.8432    1.0000 </r>
       <r>    5.8432    1.0000 </r>
       <r>    5.8432    1.0000 </r>
       <r>    8.4095    0.0000 </r>
       <r>    8.4095    0.0000 </r>
       <r>    8.4095    0.0000 </r>
       <r>    9.2079    0.0000 </r>
      </set>
      <set comment="kpoint 22">
       <r>   -6.1186    1.0000 </r>
       <r>    5.7608    1.0000 </r>
       <r>    5.7911    1.0000 </r>
       <r>    5.7911    1.0000 </r>
       <r>    8.3794    0.0000 </r>
       <r>    8.4765    0.0000 </r>
       <r>    8.4766    0.0000 </r>
       <r>    9.2883    0.0000 </r>
      </set>
      <set comment="kpoint 23">
       <r>   -6.0822    1.0000 </r>
       <r>    5.5350    1.0000 </r>
       <r>    5.6495    1.0000 </r>
       <r>    5.6495    1.0000 </r>
       <r>    8.2929    0.0000 </r>
       <r>    8.6631    0.0000 </r>
       <r>    8.6631    0.0000 </r>
       <r>    9.5043    0.0000 </r>
      </set>
      <set comment="kpoint 24">
       <r>   -6.0217    1.0000 </r>
       <r>    5.2084    1.0000 </r>
       <r>    5.4475    1.0000 </r>
       <r>    5.4475    1.0000 </r>
       <r>    8.1602    0.0000 </r>
       <r>    8.9383    0.0000 </r>
       <r>    8.9383    0.0000 </r>
       <r>    9.7968    0.0000 </r>
      </set>
      <set comment="kpoint 25">
       <r>   -5.9370    1.0000 </r>
       <r>    4.8217    1.0000 </r>
       <r>    5.2156    1.0000 </r>
       <r>    5.2156    1.0000 </r>
       <r>    7.9947    0.0000 </r>
       <r>    9.2741    0.0000 </r>
       <r>    9.2741    0.0000 </r>
       <r>   10.0889    0.0000 </r>
      </set>
      <set comment="kpoint 26">
       <r>   -5.8283    1.0000 </r>
       <r>    4.3984    1.0000 </r>
       <r>    4.9713    1.0000 </r>
       <r>    4.9713    1.0000 </r>
       <r>    7.8093    0.0000 </r>
       <r>    9.6525    0.0000 </r>
       <r>    9.6526    0.0000 </r>
       <r>   10.2711    0.0000 </r>
      </set>
      <set comment="kpoint 27">
       <r>   -5.6959    1.0000 </r>
       <r>    3.9527    1.0000 </r>
       <r>    4.7262    1.0000 </r>
       <r>    4.7262    1.0000 </r>
       <r>    7.6147    0.0000 </r>
       <r>   10.0583    0.0000 </r>
       <r>   10.0583    0.0000 </r>
       <r>   10.2221    0.0000 </r>
      </set>
      <set comment="kpoint 28">
       <r>   -5.5398    1.0000 </r>
       <r>    3.4944    1.0000 </r>
       <r>    4.4877    1.0000 </r>
       <r>    4.4878    1.0000 </r>
       <r>    7.4202    0.0000 </r>
       <r>    9.9593    0.0000 </r>
       <r>   10.4854    0.0000 </r>
       <r>   10.4855    0.0000 </r>
      </set>
      <set comment="kpoint 29">
       <r>   -5.3604    1.0000 </r>
       <r>    3.0276    1.0000 </r>
       <r>    4.2593    1.0000 </r>
       <r>    4.2593    1.0000 </r>
       <r>    7.2326    0.0000 </r>
       <r>    9.5907    0.0000 </r>
       <r>   10.9311    0.0000 </r>
       <r>   10.9311    0.0000 </r>
      </set>
      <set comment="kpoint 30">
       <r>   -5.1581    1.0000 </r>
       <r>    2.5561    1.0000 </r>
       <r>    4.0464    1.0000 </r>
       <r>    4.0464    1.0000 </r>
       <r>    7.0568    0.0000 </r>
       <r>    9.1881    0.0000 </r>
       <r>   11.3844    0.0000 </r>
       <r>   11.3844    0.0000 </r>
      </set>
      <set comment="kpoint 31">
       <r>   -4.9330    1.0000 </r>
       <r>    2.0829    1.0000 </r>
       <r>    3.8501    1.0000 </r>
       <r>    3.8502    1.0000 </r>
       <r>    6.8972    0.0000 </r>
       <r>    8.7904    0.0000 </r>
       <r>   11.8494    0.0000 </r>
       <r>   11.8495    0.0000 </r>
      </set>
      <set comment="kpoint 32">
       <r>   -4.6855    1.0000 </r>
       <r>    1.6094    1.0000 </r>
       <r>    3.6720    1.0000 </r>
       <r>    3.6720    1.0000 </r>
       <r>    6.7577    0.0000 </r>
       <r>    8.4119    0.0000 </r>
       <r>   12.3231    0.0000 </r>
       <r>   12.3232    0.0000 </r>
      </set>
      <set comment="kpoint 33">
       <r>   -4.4164    1.0000 </r>
       <r>    1.1377    1.0000 </r>
       <r>    3.5129    1.0000 </r>
       <r>    3.5129    1.0000 </r>
       <r>    6.6401    0.0000 </r>
       <r>    8.0612    0.0000 </r>
       <r>   12.8114    0.0000 </r>
       <r>   12.8114    0.0000 </r>
      </set>
      <set comment="kpoint 34">
       <r>   -4.1262    1.0000 </r>
       <r>    0.6687    1.0000 </r>
       <r>    3.3738    1.0000 </r>
       <r>    3.3738    1.0000 </r>
       <r>    6.5463    0.0000 </r>
       <r>    7.7433    0.0000 </r>
       <r>   13.3022    0.0000 </r>
       <r>   13.3022    0.0000 </r>
      </set>
      <set comment="kpoint 35">
       <r>   -3.8156    1.0000 </r>
       <r>    0.2047    1.0000 </r>
       <r>    3.2551    1.0000 </r>
       <r>    3.2551    1.0000 </r>
       <r>    6.4767    0.0000 </r>
       <r>    7.4585    0.0000 </r>
       <r>   13.7946    0.0000 </r>
       <r>   13.7946    0.0000 </r>
      </set>
      <set comment="kpoint 36">
       <r>   -3.4852    1.0000 </r>
       <r>   -0.2528    1.0000 </r>
       <r>    3.1574    1.0000 </r>
       <r>    3.1574    1.0000 </r>
       <r>    6.4342    0.0000 </r>
       <r>    7.2090    0.0000 </r>
       <r>   14.2911    0.0000 </r>
       <r>   14.2911    0.0000 </r>
      </set>
      <set comment="kpoint 37">
       <r>   -3.1359    1.0000 </r>
       <r>   -0.7020    1.0000 </r>
       <r>    3.0805    1.0000 </r>
       <r>    3.0805    1.0000 </r>
       <r>    6.4200    0.0001 </r>
       <r>    6.9941    0.0000 </r>
       <r>   14.7886    0.0000 </r>
       <r>   14.7886    0.0000 </r>
      </set>
      <set comment="kpoint 38">
       <r>   -2.7685    1.0000 </r>
       <r>   -1.1413    1.0000 </r>
       <r>    3.0258    1.0000 </r>
       <r>    3.0258    1.0000 </r>
       <r>    6.4355    0.0000 </r>
       <r>    6.8156    0.0000 </r>
       <r>   15.2789    0.0000 </r>
       <r>   15.2789    0.0000 </r>
      </set>
      <set comment="kpoint 39">
       <r>   -2.3843    1.0000 </r>
       <r>   -1.5696    1.0000 </r>
       <r>    2.9929    1.0000 </r>
       <r>    2.9929    1.0000 </r>
       <r>    6.4813    0.0000 </r>
       <r>    6.6699    0.0000 </r>
       <r>   15.7262    0.0000 </r>
       <r>   15.7264    0.0000 </r>
      </set>
      <set comment="kpoint 40">
       <r>   -1.9842    1.0000 </r>
       <r>   -1.9842    1.0000 </r>
       <r>    2.9819    1.0000 </r>
       <r>    2.9819    1.0000 </r>
       <r>    6.5592    0.0000 </r>
       <r>    6.5592    0.0000 </r>
       <r>   15.9661    0.0000 </r>
       <r>   15.9661    0.0000 </r>
      </set>
      <set comment="kpoint 41">
       <r>   -1.9842    1.0000 </r>
       <r>   -1.9842    1.0000 </r>
       <r>    2.9819    1.0000 </r>
       <r>    2.9819    1.0000 </r>
       <r>    6.5592    0.0000 </r>
       <r>    6.5592    0.0000 </r>
       <r>   15.9661    0.0000 </r>
       <r>   15.9661    0.0000 </r>
      </set>
      <set comment="kpoint 42">
       <r>   -1.9848    1.0000 </r>
       <r>   -1.9826    1.0000 </r>
       <r>    2.9715    1.0000 </r>
       <r>    2.9832    1.0000 </r>
       <r>    6.5606    0.0000 </r>
       <r>    6.5747    0.0000 </r>
       <r>   15.9501    0.0000 </r>
       <r>   15.9570    0.0000 </r>
      </set>
      <set comment="kpoint 43">
       <r>   -1.9867    1.0000 </r>
       <r>   -1.9776    1.0000 </r>
       <r>    2.9406    1.0000 </r>
       <r>    2.9868    1.0000 </r>
       <r>    6.5648    0.0000 </r>
       <r>    6.6207    0.0000 </r>
       <r>   15.9002    0.0000 </r>
       <r>   15.9300    0.0000 </r>
      </set>
      <set comment="kpoint 44">
       <r>   -1.9899    1.0000 </r>
       <r>   -1.9694    1.0000 </r>
       <r>    2.8911    1.0000 </r>
       <r>    2.9929    1.0000 </r>
       <r>    6.5719    0.0000 </r>
       <r>    6.6953    0.0000 </r>
       <r>   15.8218    0.0000 </r>
       <r>   15.8860    0.0000 </r>
      </set>
      <set comment="kpoint 45">
       <r>   -1.9945    1.0000 </r>
       <r>   -1.9580    1.0000 </r>
       <r>    2.8255    1.0000 </r>
       <r>    3.0014    1.0000 </r>
       <r>    6.5817    0.0000 </r>
       <r>    6.7964    0.0000 </r>
       <r>   15.7193    0.0000 </r>
       <r>   15.8267    0.0000 </r>
      </set>
      <set comment="kpoint 46">
       <r>   -2.0007    1.0000 </r>
       <r>   -1.9432    1.0000 </r>
       <r>    2.7467    1.0000 </r>
       <r>    3.0123    1.0000 </r>
       <r>    6.5943    0.0000 </r>
       <r>    6.9209    0.0000 </r>
       <r>   15.5982    0.0000 </r>
       <r>   15.7540    0.0000 </r>
      </set>
      <set comment="kpoint 47">
       <r>   -2.0086    1.0000 </r>
       <r>   -1.9252    1.0000 </r>
       <r>    2.6577    1.0000 </r>
       <r>    3.0257    1.0000 </r>
       <r>    6.6097    0.0000 </r>
       <r>    7.0661    0.0000 </r>
       <r>   15.4629    0.0000 </r>
       <r>   15.6698    0.0000 </r>
      </set>
      <set comment="kpoint 48">
       <r>   -2.0185    1.0000 </r>
       <r>   -1.9039    1.0000 </r>
       <r>    2.5615    1.0000 </r>
       <r>    3.0414    1.0000 </r>
       <r>    6.6279    0.0000 </r>
       <r>    7.2293    0.0000 </r>
       <r>   15.3172    0.0000 </r>
       <r>   15.5760    0.0000 </r>
      </set>
      <set comment="kpoint 49">
       <r>   -2.0306    1.0000 </r>
       <r>   -1.8793    1.0000 </r>
       <r>    2.4605    1.0000 </r>
       <r>    3.0595    1.0000 </r>
       <r>    6.6489    0.0000 </r>
       <r>    7.4081    0.0000 </r>
       <r>   15.1636    0.0000 </r>
       <r>   15.4742    0.0000 </r>
      </set>
      <set comment="kpoint 50">
       <r>   -2.0451    1.0000 </r>
       <r>   -1.8515    1.0000 </r>
       <r>    2.3573    1.0000 </r>
       <r>    3.0800    1.0000 </r>
       <r>    6.6726    0.0000 </r>
       <r>    7.6003    0.0000 </r>
       <r>   15.0044    0.0000 </r>
       <r>   15.3657    0.0000 </r>
      </set>
      <set comment="kpoint 51">
       <r>   -2.0624    1.0000 </r>
       <r>   -1.8202    1.0000 </r>
       <r>    2.2535    1.0000 </r>
       <r>    3.1028    1.0000 </r>
       <r>    6.6991    0.0000 </r>
       <r>    7.8045    0.0000 </r>
       <r>   14.8353    0.0000 </r>
       <r>   15.2502    0.0000 </r>
      </set>
      <set comment="kpoint 52">
       <r>   -2.0829    1.0000 </r>
       <r>   -1.7858    1.0000 </r>
       <r>    2.1515    1.0000 </r>
       <r>    3.1280    1.0000 </r>
       <r>    6.7282    0.0000 </r>
       <r>    8.0187    0.0000 </r>
       <r>   14.6694    0.0000 </r>
       <r>   15.1309    0.0000 </r>
      </set>
      <set comment="kpoint 53">
       <r>   -2.1071    1.0000 </r>
       <r>   -1.7481    1.0000 </r>
       <r>    2.0521    1.0000 </r>
       <r>    3.1555    1.0000 </r>
       <r>    6.7600    0.0000 </r>
       <r>    8.2408    0.0000 </r>
       <r>   14.5018    0.0000 </r>
       <r>   15.0084    0.0000 </r>
      </set>
      <set comment="kpoint 54">
       <r>   -2.1349    1.0000 </r>
       <r>   -1.7071    1.0000 </r>
       <r>    1.9575    1.0000 </r>
       <r>    3.1853    1.0000 </r>
       <r>    6.7948    0.0000 </r>
       <r>    8.4726    0.0000 </r>
       <r>   14.3353    0.0000 </r>
       <r>   14.8859    0.0000 </r>
      </set>
      <set comment="kpoint 55">
       <r>   -2.1668    1.0000 </r>
       <r>   -1.6629    1.0000 </r>
       <r>    1.8683    1.0000 </r>
       <r>    3.2173    1.0000 </r>
       <r>    6.8318    0.0000 </r>
       <r>    8.7110    0.0000 </r>
       <r>   14.1661    0.0000 </r>
       <r>   14.7570    0.0000 </r>
      </set>
      <set comment="kpoint 56">
       <r>   -2.2033    1.0000 </r>
       <r>   -1.6156    1.0000 </r>
       <r>    1.7853    1.0000 </r>
       <r>    3.2515    1.0000 </r>
       <r>    6.8706    0.0000 </r>
       <r>    8.9555    0.0000 </r>
       <r>   13.9972    0.0000 </r>
       <r>   14.5996    0.0000 </r>
      </set>
      <set comment="kpoint 57">
       <r>   -2.2444    1.0000 </r>
       <r>   -1.5649    1.0000 </r>
       <r>    1.7097    1.0000 </r>
       <r>    3.2878    1.0000 </r>
       <r>    6.9128    0.0000 </r>
       <r>    9.2059    0.0000 </r>
       <r>   13.8292    0.0000 </r>
       <r>   14.4261    0.0000 </r>
      </set>
      <set comment="kpoint 58">
       <r>   -2.2905    1.0000 </r>
       <r>   -1.5110    1.0000 </r>
       <r>    1.6420    1.0000 </r>
       <r>    3.3263    1.0000 </r>
       <r>    6.9574    0.0000 </r>
       <r>    9.4613    0.0000 </r>
       <r>   13.6624    0.0000 </r>
       <r>   14.2417    0.0000 </r>
      </set>
      <set comment="kpoint 59">
       <r>   -2.3415    1.0000 </r>
       <r>   -1.4537    1.0000 </r>
       <r>    1.5826    1.0000 </r>
       <r>    3.3670    1.0000 </r>
       <r>    7.0051    0.0000 </r>
       <r>    9.7213    0.0000 </r>
       <r>   13.4983    0.0000 </r>
       <r>   14.0659    0.0000 </r>
      </set>
      <set comment="kpoint 60">
       <r>   -2.3978    1.0000 </r>
       <r>   -1.3933    1.0000 </r>
       <r>    1.5321    1.0000 </r>
       <r>    3.4096    1.0000 </r>
       <r>    7.0546    0.0000 </r>
       <r>    9.9850    0.0000 </r>
       <r>   13.3343    0.0000 </r>
       <r>   13.8938    0.0000 </r>
      </set>
      <set comment="kpoint 61">
       <r>   -2.3978    1.0000 </r>
       <r>   -1.3933    1.0000 </r>
       <r>    1.5321    1.0000 </r>
       <r>    3.4096    1.0000 </r>
       <r>    7.0546    0.0000 </r>
       <r>    9.9850    0.0000 </r>
       <r>   13.3342    0.0000 </r>
       <r>   13.8923    0.0000 </r>
      </set>
      <set comment="kpoint 62">
       <r>   -2.5966    1.0000 </r>
       <r>   -1.1931    1.0000 </r>
       <r>    1.4345    1.0000 </r>
       <r>    3.5489    1.0000 </r>
       <r>    7.2156    0.0000 </r>
       <r>   10.7916    0.0000 </r>
       <r>   12.8455    0.0000 </r>
       <r>   13.4012    0.0000 </r>
      </set>
      <set comment="kpoint 63">
       <r>   -2.8362    1.0000 </r>
       <r>   -0.9641    1.0000 </r>
       <r>    1.4178    1.0000 </r>
       <r>    3.7048    1.0000 </r>
       <r>    7.3962    0.0000 </r>
       <r>   11.5842    0.0000 </r>
       <r>   12.3825    0.0000 </r>
       <r>   12.9782    0.0000 </r>
      </set>
      <set comment="kpoint 64">
       <r>   -3.1058    1.0000 </r>
       <r>   -0.7065    1.0000 </r>
       <r>    1.4755    1.0000 </r>
       <r>    3.8750    1.0000 </r>
       <r>    7.5927    0.0000 </r>
       <r>   11.9416    0.0000 </r>
       <r>   12.0817    0.0000 </r>
       <r>   12.9412    0.0000 </r>
      </set>
      <set comment="kpoint 65">
       <r>   -3.3945    1.0000 </r>
       <r>   -0.4203    1.0000 </r>
       <r>    1.5979    1.0000 </r>
       <r>    4.0569    1.0000 </r>
       <r>    7.8015    0.0000 </r>
       <r>   11.5233    0.0000 </r>
       <r>   11.8556    0.0000 </r>
       <r>   12.6384    0.0000 </r>
      </set>
      <set comment="kpoint 66">
       <r>   -3.6916    1.0000 </r>
       <r>   -0.1065    1.0000 </r>
       <r>    1.7749    1.0000 </r>
       <r>    4.2480    1.0000 </r>
       <r>    8.0170    0.0000 </r>
       <r>   11.1297    0.0000 </r>
       <r>   11.4867    0.0000 </r>
       <r>   12.3382    0.0000 </r>
      </set>
      <set comment="kpoint 67">
       <r>   -3.9885    1.0000 </r>
       <r>    0.2347    1.0000 </r>
       <r>    1.9981    1.0000 </r>
       <r>    4.4434    1.0000 </r>
       <r>    8.2316    0.0000 </r>
       <r>   10.7580    0.0000 </r>
       <r>   11.1178    0.0000 </r>
       <r>   12.0746    0.0000 </r>
      </set>
      <set comment="kpoint 68">
       <r>   -4.2778    1.0000 </r>
       <r>    0.6029    1.0000 </r>
       <r>    2.2604    1.0000 </r>
       <r>    4.6398    1.0000 </r>
       <r>    8.4357    0.0000 </r>
       <r>   10.4142    0.0000 </r>
       <r>   10.7669    0.0000 </r>
       <r>   11.8562    0.0000 </r>
      </set>
      <set comment="kpoint 69">
       <r>   -4.5544    1.0000 </r>
       <r>    0.9978    1.0000 </r>
       <r>    2.5564    1.0000 </r>
       <r>    4.8329    1.0000 </r>
       <r>    8.6170    0.0000 </r>
       <r>   10.0980    0.0000 </r>
       <r>   10.4406    0.0000 </r>
       <r>   11.6907    0.0000 </r>
      </set>
      <set comment="kpoint 70">
       <r>   -4.8150    1.0000 </r>
       <r>    1.4178    1.0000 </r>
       <r>    2.8793    1.0000 </r>
       <r>    5.0168    1.0000 </r>
       <r>    8.7617    0.0000 </r>
       <r>    9.8067    0.0000 </r>
       <r>   10.1348    0.0000 </r>
       <r>   11.5833    0.0000 </r>
      </set>
      <set comment="kpoint 71">
       <r>   -5.0561    1.0000 </r>
       <r>    1.8622    1.0000 </r>
       <r>    3.2244    1.0000 </r>
       <r>    5.1872    1.0000 </r>
       <r>    8.8591    0.0000 </r>
       <r>    9.5427    0.0000 </r>
       <r>    9.8535    0.0000 </r>
       <r>   11.5315    0.0000 </r>
      </set>
      <set comment="kpoint 72">
       <r>   -5.2757    1.0000 </r>
       <r>    2.3307    1.0000 </r>
       <r>    3.5869    1.0000 </r>
       <r>    5.3403    1.0000 </r>
       <r>    8.9048    0.0000 </r>
       <r>    9.3057    0.0000 </r>
       <r>    9.5927    0.0000 </r>
       <r>   11.5130    0.0000 </r>
      </set>
      <set comment="kpoint 73">
       <r>   -5.4724    1.0000 </r>
       <r>    2.8189    1.0000 </r>
       <r>    3.9591    1.0000 </r>
       <r>    5.4723    1.0000 </r>
       <r>    8.9075    0.0000 </r>
       <r>    9.0962    0.0000 </r>
       <r>    9.3582    0.0000 </r>
       <r>   11.4770    0.0000 </r>
      </set>
      <set comment="kpoint 74">
       <r>   -5.6449    1.0000 </r>
       <r>    3.3247    1.0000 </r>
       <r>    4.3342    1.0000 </r>
       <r>    5.5829    1.0000 </r>
       <r>    8.8774    0.0000 </r>
       <r>    8.9145    0.0000 </r>
       <r>    9.1424    0.0000 </r>
       <r>   11.3374    0.0000 </r>
      </set>
      <set comment="kpoint 75">
       <r>   -5.7921    1.0000 </r>
       <r>    3.8435    1.0000 </r>
       <r>    4.7030    1.0000 </r>
       <r>    5.6706    1.0000 </r>
       <r>    8.7604    0.0000 </r>
       <r>    8.8278    0.0000 </r>
       <r>    8.9514    0.0000 </r>
       <r>   11.0226    0.0000 </r>
      </set>
      <set comment="kpoint 76">
       <r>   -5.9134    1.0000 </r>
       <r>    4.3660    1.0000 </r>
       <r>    5.0513    1.0000 </r>
       <r>    5.7376    1.0000 </r>
       <r>    8.6341    0.0000 </r>
       <r>    8.7647    0.0000 </r>
       <r>    8.7808    0.0000 </r>
       <r>   10.5609    0.0000 </r>
      </set>
      <set comment="kpoint 77">
       <r>   -6.0082    1.0000 </r>
       <r>    4.8765    1.0000 </r>
       <r>    5.3628    1.0000 </r>
       <r>    5.7861    1.0000 </r>
       <r>    8.5358    0.0000 </r>
       <r>    8.6343    0.0000 </r>
       <r>    8.6905    0.0000 </r>
       <r>   10.0523    0.0000 </r>
      </set>
      <set comment="kpoint 78">
       <r>   -6.0762    1.0000 </r>
       <r>    5.3430    1.0000 </r>
       <r>    5.6154    1.0000 </r>
       <r>    5.8186    1.0000 </r>
       <r>    8.4657    0.0000 </r>
       <r>    8.5166    0.0000 </r>
       <r>    8.5950    0.0000 </r>
       <r>    9.6000    0.0000 </r>
      </set>
      <set comment="kpoint 79">
       <r>   -6.1170    1.0000 </r>
       <r>    5.7017    1.0000 </r>
       <r>    5.7839    1.0000 </r>
       <r>    5.8372    1.0000 </r>
       <r>    8.4235    0.0000 </r>
       <r>    8.4377    0.0000 </r>
       <r>    8.4759    0.0000 </r>
       <r>    9.3037    0.0000 </r>
      </set>
      <set comment="kpoint 80">
       <r>   -6.1307    1.0000 </r>
       <r>    5.8432    1.0000 </r>
       <r>    5.8432    1.0000 </r>
       <r>    5.8432    1.0000 </r>
       <r>    8.4095    0.0000 </r>
       <r>    8.4095    0.0000 </r>
       <r>    8.4095    0.0000 </r>
       <r>    9.2079    0.0000 </r>
      </set>
     </set>
    </set>
   </array>
  </eigenvalues>
  <separator name="orbital magnetization" >
   <v name="MAGDIPOLOUT">      0.00000000      0.00000000      0.00000000</v>
  </separator>
  <dos>
   <i name="efermi">      6.14592248 </i>
   <total>
    <array>
     <dimension dim="1">gridpoints</dimension>
     <dimension dim="2">spin</dimension>
     <field>energy</field>
     <field>total</field>
     <field>integrated</field>
     <set>
      <set comment="spin 1">
       <r>    -7.2355     0.0000     0.0000 </r>
       <r>    -7.1545     0.0000     0.0000 </r>
       <r>    -7.0735     0.0000     0.0000 </r>
       <r>    -6.9924     0.0000     0.0000 </r>
       <r>    -6.9114     0.0000     0.0000 </r>
       <r>    -6.8304     0.0000     0.0000 </r>
       <r>    -6.7494     0.0000     0.0000 </r>
       <r>    -6.6684     0.0000     0.0000 </r>
       <r>    -6.5873     0.0000     0.0000 </r>
       <r>    -6.5063     0.0000     0.0000 </r>
       <r>    -6.4253     0.0000     0.0000 </r>
       <r>    -6.3443     0.0019     0.0002 </r>
       <r>    -6.2632     0.0514     0.0043 </r>
       <r>    -6.1822     0.4281     0.0390 </r>
       <r>    -6.1012     1.2227     0.1381 </r>
       <r>    -6.0202     1.4372     0.2545 </r>
       <r>    -5.9392     1.0474     0.3394 </r>
       <r>    -5.8581     0.7757     0.4022 </r>
       <r>    -5.7771     0.6509     0.4550 </r>
       <r>    -5.6961     0.5744     0.5015 </r>
       <r>    -5.6151     0.5248     0.5440 </r>
       <r>    -5.5341     0.4818     0.5831 </r>
       <r>    -5.4530     0.4566     0.6201 </r>
       <r>    -5.3720     0.4244     0.6544 </r>
       <r>    -5.2910     0.4086     0.6875 </r>
       <r>    -5.2100     0.3940     0.7195 </r>
       <r>    -5.1290     0.3631     0.7489 </r>
       <r>    -5.0479     0.3764     0.7794 </r>
       <r>    -4.9669     0.3391     0.8069 </r>
       <r>    -4.8859     0.3427     0.8346 </r>
       <r>    -4.8049     0.3388     0.8621 </r>
       <r>    -4.7238     0.3116     0.8873 </r>
       <r>    -4.6428     0.3337     0.9144 </r>
       <r>    -4.5618     0.2992     0.9386 </r>
       <r>    -4.4808     0.3157     0.9642 </r>
       <r>    -4.3998     0.3093     0.9892 </r>
       <r>    -4.3187     0.2958     1.0132 </r>
       <r>    -4.2377     0.3181     1.0390 </r>
       <r>    -4.1567     0.2880     1.0623 </r>
       <r>    -4.0757     0.3268     1.0888 </r>
       <r>    -3.9947     0.3348     1.1159 </r>
       <r>    -3.9136     0.3588     1.1450 </r>
       <r>    -3.8326     0.4314     1.1799 </r>
       <r>    -3.7516     0.4462     1.2161 </r>
       <r>    -3.6706     0.2817     1.2389 </r>
       <r>    -3.5895     0.1357     1.2499 </r>
       <r>    -3.5085     0.1306     1.2605 </r>
       <r>    -3.4275     0.2140     1.2778 </r>
       <r>    -3.3465     0.1899     1.2932 </r>
       <r>    -3.2655     0.0871     1.3003 </r>
       <r>    -3.1844     0.1133     1.3094 </r>
       <r>    -3.1034     0.2508     1.3298 </r>
       <r>    -3.0224     0.1977     1.3458 </r>
       <r>    -2.9414     0.0715     1.3516 </r>
       <r>    -2.8604     0.1236     1.3616 </r>
       <r>    -2.7793     0.2377     1.3808 </r>
       <r>    -2.6983     0.2023     1.3972 </r>
       <r>    -2.6173     0.1484     1.4093 </r>
       <r>    -2.5363     0.1548     1.4218 </r>
       <r>    -2.4552     0.2298     1.4404 </r>
       <r>    -2.3742     0.5193     1.4825 </r>
       <r>    -2.2932     0.6489     1.5351 </r>
       <r>    -2.2122     0.6432     1.5872 </r>
       <r>    -2.1312     0.8719     1.6578 </r>
       <r>    -2.0501     1.6690     1.7930 </r>
       <r>    -1.9691     2.6903     2.0110 </r>
       <r>    -1.8881     2.2647     2.1945 </r>
       <r>    -1.8071     1.1748     2.2897 </r>
       <r>    -1.7261     0.7236     2.3483 </r>
       <r>    -1.6450     0.6220     2.3987 </r>
       <r>    -1.5640     0.6324     2.4499 </r>
       <r>    -1.4830     0.5956     2.4982 </r>
       <r>    -1.4020     0.5128     2.5398 </r>
       <r>    -1.3209     0.3442     2.5676 </r>
       <r>    -1.2399     0.2111     2.5847 </r>
       <r>    -1.1589     0.3750     2.6151 </r>
       <r>    -1.0779     0.4760     2.6537 </r>
       <r>    -0.9969     0.3554     2.6825 </r>
       <r>    -0.9158     0.3006     2.7068 </r>
       <r>    -0.8348     0.2034     2.7233 </r>
       <r>    -0.7538     0.2109     2.7404 </r>
       <r>    -0.6728     0.3885     2.7719 </r>
       <r>    -0.5918     0.2812     2.7947 </r>
       <r>    -0.5107     0.1003     2.8028 </r>
       <r>    -0.4297     0.1714     2.8167 </r>
       <r>    -0.3487     0.2788     2.8393 </r>
       <r>    -0.2677     0.2393     2.8587 </r>
       <r>    -0.1866     0.1891     2.8740 </r>
       <r>    -0.1056     0.1990     2.8901 </r>
       <r>    -0.0246     0.2335     2.9090 </r>
       <r>     0.0564     0.1599     2.9220 </r>
       <r>     0.1374     0.1125     2.9311 </r>
       <r>     0.2185     0.2351     2.9501 </r>
       <r>     0.2995     0.2786     2.9727 </r>
       <r>     0.3805     0.2020     2.9891 </r>
       <r>     0.4615     0.1157     2.9985 </r>
       <r>     0.5425     0.0896     3.0057 </r>
       <r>     0.6236     0.2042     3.0223 </r>
       <r>     0.7046     0.2695     3.0441 </r>
       <r>     0.7856     0.2216     3.0621 </r>
       <r>     0.8666     0.1353     3.0730 </r>
       <r>     0.9477     0.0968     3.0809 </r>
       <r>     1.0287     0.1543     3.0934 </r>
       <r>     1.1097     0.1910     3.1088 </r>
       <r>     1.1907     0.2381     3.1281 </r>
       <r>     1.2717     0.2089     3.1450 </r>
       <r>     1.3528     0.2173     3.1627 </r>
       <r>     1.4338     0.5079     3.2038 </r>
       <r>     1.5148     0.7708     3.2663 </r>
       <r>     1.5958     0.8811     3.3376 </r>
       <r>     1.6768     0.8442     3.4060 </r>
       <r>     1.7579     0.6756     3.4608 </r>
       <r>     1.8389     0.5814     3.5079 </r>
       <r>     1.9199     0.5149     3.5496 </r>
       <r>     2.0009     0.4935     3.5896 </r>
       <r>     2.0820     0.5464     3.6339 </r>
       <r>     2.1630     0.5546     3.6788 </r>
       <r>     2.2440     0.5164     3.7206 </r>
       <r>     2.3250     0.5079     3.7618 </r>
       <r>     2.4060     0.4237     3.7961 </r>
       <r>     2.4871     0.3876     3.8275 </r>
       <r>     2.5681     0.5542     3.8724 </r>
       <r>     2.6491     0.6018     3.9212 </r>
       <r>     2.7301     0.4715     3.9594 </r>
       <r>     2.8111     0.5284     4.0022 </r>
       <r>     2.8922     0.9616     4.0801 </r>
       <r>     2.9732     2.0575     4.2468 </r>
       <r>     3.0542     2.9192     4.4833 </r>
       <r>     3.1352     2.4142     4.6789 </r>
       <r>     3.2163     1.7563     4.8212 </r>
       <r>     3.2973     1.4542     4.9390 </r>
       <r>     3.3783     1.2719     5.0421 </r>
       <r>     3.4593     1.0335     5.1258 </r>
       <r>     3.5403     0.8694     5.1963 </r>
       <r>     3.6214     0.8030     5.2613 </r>
       <r>     3.7024     0.6870     5.3170 </r>
       <r>     3.7834     0.5286     5.3598 </r>
       <r>     3.8644     0.6219     5.4102 </r>
       <r>     3.9454     0.7035     5.4672 </r>
       <r>     4.0265     0.6693     5.5214 </r>
       <r>     4.1075     0.6107     5.5709 </r>
       <r>     4.1885     0.4537     5.6077 </r>
       <r>     4.2695     0.5303     5.6506 </r>
       <r>     4.3506     0.6497     5.7033 </r>
       <r>     4.4316     0.6627     5.7570 </r>
       <r>     4.5126     0.6487     5.8095 </r>
       <r>     4.5936     0.9203     5.8841 </r>
       <r>     4.6746     1.7429     6.0253 </r>
       <r>     4.7557     2.0072     6.1879 </r>
       <r>     4.8367     1.6113     6.3185 </r>
       <r>     4.9177     1.3244     6.4258 </r>
       <r>     4.9987     1.2738     6.5290 </r>
       <r>     5.0797     1.2196     6.6278 </r>
       <r>     5.1608     1.0889     6.7160 </r>
       <r>     5.2418     1.1470     6.8090 </r>
       <r>     5.3228     1.1299     6.9005 </r>
       <r>     5.4038     1.2082     6.9984 </r>
       <r>     5.4848     1.3003     7.1037 </r>
       <r>     5.5659     1.2640     7.2061 </r>
       <r>     5.6469     1.4460     7.3233 </r>
       <r>     5.7279     1.9820     7.4839 </r>
       <r>     5.8089     2.7661     7.7080 </r>
       <r>     5.8900     2.5070     7.9111 </r>
       <r>     5.9710     0.9629     7.9891 </r>
       <r>     6.0520     0.1287     7.9996 </r>
       <r>     6.1330     0.0055     8.0000 </r>
       <r>     6.2140     0.0012     8.0001 </r>
       <r>     6.2951     0.0287     8.0024 </r>
       <r>     6.3761     0.2366     8.0216 </r>
       <r>     6.4571     0.7984     8.0863 </r>
       <r>     6.5381     1.6572     8.2206 </r>
       <r>     6.6191     2.3587     8.4117 </r>
       <r>     6.7002     2.0814     8.5803 </r>
       <r>     6.7812     1.5296     8.7042 </r>
       <r>     6.8622     1.2499     8.8055 </r>
       <r>     6.9432     1.1041     8.8949 </r>
       <r>     7.0243     1.0471     8.9798 </r>
       <r>     7.1053     0.8764     9.0508 </r>
       <r>     7.1863     0.6381     9.1025 </r>
       <r>     7.2673     0.6317     9.1537 </r>
       <r>     7.3483     0.7044     9.2108 </r>
       <r>     7.4294     1.1217     9.3016 </r>
       <r>     7.5104     1.1421     9.3942 </r>
       <r>     7.5914     0.9151     9.4683 </r>
       <r>     7.6724     0.8140     9.5343 </r>
       <r>     7.7534     0.7571     9.5956 </r>
       <r>     7.8345     0.8057     9.6609 </r>
       <r>     7.9155     0.6351     9.7123 </r>
       <r>     7.9965     0.6640     9.7661 </r>
       <r>     8.0775     0.7888     9.8301 </r>
       <r>     8.1586     0.6881     9.8858 </r>
       <r>     8.2396     0.7473     9.9463 </r>
       <r>     8.3206     1.1535    10.0398 </r>
       <r>     8.4016     2.5248    10.2444 </r>
       <r>     8.4826     3.5638    10.5331 </r>
       <r>     8.5637     2.5862    10.7426 </r>
       <r>     8.6447     1.7691    10.8860 </r>
       <r>     8.7257     1.7025    11.0239 </r>
       <r>     8.8067     1.6853    11.1605 </r>
       <r>     8.8877     1.7070    11.2988 </r>
       <r>     8.9688     1.5962    11.4281 </r>
       <r>     9.0498     1.1074    11.5178 </r>
       <r>     9.1308     1.2711    11.6208 </r>
       <r>     9.2118     2.5698    11.8290 </r>
       <r>     9.2929     3.5300    12.1150 </r>
       <r>     9.3739     3.1267    12.3684 </r>
       <r>     9.4549     1.9127    12.5233 </r>
       <r>     9.5359     1.0683    12.6099 </r>
       <r>     9.6169     0.9050    12.6832 </r>
       <r>     9.6980     0.7730    12.7458 </r>
       <r>     9.7790     0.6534    12.7988 </r>
       <r>     9.8600     0.6428    12.8509 </r>
       <r>     9.9410     0.5860    12.8983 </r>
       <r>    10.0220     0.7971    12.9629 </r>
       <r>    10.1031     0.9700    13.0415 </r>
       <r>    10.1841     0.7712    13.1040 </r>
       <r>    10.2651     0.5400    13.1478 </r>
       <r>    10.3461     0.3630    13.1772 </r>
       <r>    10.4272     0.4112    13.2105 </r>
       <r>    10.5082     0.5584    13.2557 </r>
       <r>    10.5892     0.4320    13.2907 </r>
       <r>    10.6702     0.3185    13.3165 </r>
       <r>    10.7512     0.4247    13.3509 </r>
       <r>    10.8323     0.4659    13.3887 </r>
       <r>    10.9133     0.3833    13.4197 </r>
       <r>    10.9943     0.3910    13.4514 </r>
       <r>    11.0753     0.4147    13.4850 </r>
       <r>    11.1563     0.4668    13.5228 </r>
       <r>    11.2374     0.3102    13.5480 </r>
       <r>    11.3184     0.2594    13.5690 </r>
       <r>    11.3994     0.4930    13.6089 </r>
       <r>    11.4804     0.7505    13.6697 </r>
       <r>    11.5615     0.9433    13.7462 </r>
       <r>    11.6425     0.7634    13.8080 </r>
       <r>    11.7235     0.4231    13.8423 </r>
       <r>    11.8045     0.3912    13.8740 </r>
       <r>    11.8855     0.6095    13.9234 </r>
       <r>    11.9666     0.5078    13.9645 </r>
       <r>    12.0476     0.3982    13.9968 </r>
       <r>    12.1286     0.4238    14.0311 </r>
       <r>    12.2096     0.2468    14.0511 </r>
       <r>    12.2906     0.2916    14.0747 </r>
       <r>    12.3717     0.5081    14.1159 </r>
       <r>    12.4527     0.3648    14.1455 </r>
       <r>    12.5337     0.2039    14.1620 </r>
       <r>    12.6147     0.2253    14.1802 </r>
       <r>    12.6958     0.2112    14.1973 </r>
       <r>    12.7768     0.2730    14.2195 </r>
       <r>    12.8578     0.4580    14.2566 </r>
       <r>    12.9388     0.5035    14.2974 </r>
       <r>    13.0198     0.4326    14.3324 </r>
       <r>    13.1009     0.1891    14.3477 </r>
       <r>    13.1819     0.0659    14.3531 </r>
       <r>    13.2629     0.2729    14.3752 </r>
       <r>    13.3439     0.6773    14.4301 </r>
       <r>    13.4249     0.6699    14.4843 </r>
       <r>    13.5060     0.4793    14.5232 </r>
       <r>    13.5870     0.6607    14.5767 </r>
       <r>    13.6680     0.9056    14.6501 </r>
       <r>    13.7490     0.8533    14.7192 </r>
       <r>    13.8301     0.7355    14.7788 </r>
       <r>    13.9111     0.6408    14.8307 </r>
       <r>    13.9921     0.5346    14.8740 </r>
       <r>    14.0731     0.4356    14.9093 </r>
       <r>    14.1541     0.3381    14.9367 </r>
       <r>    14.2352     0.4108    14.9700 </r>
       <r>    14.3162     0.5465    15.0143 </r>
       <r>    14.3972     0.4638    15.0519 </r>
       <r>    14.4782     0.3335    15.0789 </r>
       <r>    14.5592     0.2941    15.1027 </r>
       <r>    14.6403     0.3121    15.1280 </r>
       <r>    14.7213     0.4063    15.1609 </r>
       <r>    14.8023     0.5762    15.2076 </r>
       <r>    14.8833     0.5544    15.2525 </r>
       <r>    14.9644     0.3953    15.2845 </r>
       <r>    15.0454     0.3660    15.3142 </r>
       <r>    15.1264     0.3674    15.3440 </r>
       <r>    15.2074     0.4589    15.3811 </r>
       <r>    15.2884     0.6190    15.4313 </r>
       <r>    15.3695     0.6036    15.4802 </r>
       <r>    15.4505     0.4585    15.5174 </r>
       <r>    15.5315     0.4300    15.5522 </r>
       <r>    15.6125     0.4799    15.5911 </r>
       <r>    15.6935     0.6536    15.6440 </r>
       <r>    15.7746     0.8271    15.7110 </r>
       <r>    15.8556     0.8866    15.7829 </r>
       <r>    15.9366     1.1495    15.8760 </r>
       <r>    16.0176     1.0703    15.9627 </r>
       <r>    16.0987     0.4062    15.9956 </r>
       <r>    16.1797     0.0518    15.9998 </r>
       <r>    16.2607     0.0020    16.0000 </r>
       <r>    16.3417     0.0000    16.0000 </r>
       <r>    16.4227     0.0000    16.0000 </r>
       <r>    16.5038     0.0000    16.0000 </r>
       <r>    16.5848     0.0000    16.0000 </r>
       <r>    16.6658     0.0000    16.0000 </r>
       <r>    16.7468     0.0000    16.0000 </r>
       <r>    16.8278     0.0000    16.0000 </r>
       <r>    16.9089     0.0000    16.0000 </r>
       <r>    16.9899     0.0000    16.0000 </r>
       <r>    17.0709     0.0000    16.0000 </r>
      </set>
     </set>
    </array>
   </total>
   <partial>
    <array>
     <dimension dim="1">gridpoints</dimension>
     <dimension dim="2">spin</dimension>
     <dimension dim="3">ion</dimension>
     <field>energy</field>
     <field>  s</field>
     <field> py</field>
     <field> pz</field>
     <field> px</field>
     <field>dxy</field>
     <field>dyz</field>
     <field>dz2</field>
     <field>dxz</field>
     <field>dx2</field>
     <set>
      <set comment="ion 1">
       <set comment="spin 1">
        <r>    -7.2355     0.0000     0.0000     0.0000     0.0000     0.0000     0.0000     0.0000     0.0000     0.0000 </r>
        <r>    -7.1545     0.0000     0.0000     0.0000     0.0000     0.0000     0.0000     0.0000     0.0000     0.0000 </r>
        <r>    -7.0735     0.0000     0.0000     0.0000     0.0000     0.0000     0.0000     0.0000     0.0000     0.0000 </r>
        <r>    -6.9924     0.0000     0.0000     0.0000     0.0000     0.0000     0.0000     0.0000     0.0000     0.0000 </r>
        <r>    -6.9114     0.0000     0.0000     0.0000     0.0000     0.0000     0.0000     0.0000     0.0000     0.0000 </r>
        <r>    -6.8304     0.0000     0.0000     0.0000     0.0000     0.0000     0.0000     0.0000     0.0000     0.0000 </r>
        <r>    -6.7494     0.0000     0.0000     0.0000     0.0000     0.0000     0.0000     0.0000     0.0000     0.0000 </r>
        <r>    -6.6684     0.0000     0.0000     0.0000     0.0000     0.0000     0.0000     0.0000     0.0000     0.0000 </r>
        <r>    -6.5873     0.0000     0.0000     0.0000     0.0000     0.0000     0.0000     0.0000     0.0000     0.0000 </r>
        <r>    -6.5063     0.0000     0.0000     0.0000     0.0000     0.0000     0.0000     0.0000     0.0000     0.0000 </r>
        <r>    -6.4253     0.0000     0.0000     0.0000     0.0000     0.0000     0.0000     0.0000     0.0000     0.0000 </r>
        <r>    -6.3443     0.0004     0.0000     0.0000     0.0000     0.0000     0.0000     0.0000     0.0000     0.0000 </r>
        <r>    -6.2632     0.0110     0.0000     0.0000     0.0000     0.0000     0.0000     0.0000     0.0000     0.0000 </r>
        <r>    -6.1822     0.0920     0.0000     0.0000     0.0000     0.0000     0.0000     0.0000     0.0000     0.0000 </r>
        <r>    -6.1012     0.2626     0.0001     0.0002     0.0000     0.0000     0.0000     0.0000     0.0000     0.0000 </r>
        <r>    -6.0202     0.3084     0.0003     0.0006     0.0001     0.0000     0.0000     0.0000     0.0000     0.0000 </r>
        <r>    -5.9392     0.2244     0.0004     0.0009     0.0002     0.0000     0.0000     0.0000     0.0000     0.0000 </r>
        <r>    -5.8581     0.1658     0.0005     0.0011     0.0002     0.0000     0.0000     0.0000     0.0000     0.0000 </r>
        <r>    -5.7771     0.1388     0.0006     0.0013     0.0003     0.0000     0.0000     0.0000     0.0000     0.0000 </r>
        <r>    -5.6961     0.1223     0.0007     0.0015     0.0003     0.0000     0.0000     0.0000     0.0000     0.0000 </r>
        <r>    -5.6151     0.1115     0.0007     0.0016     0.0003     0.0000     0.0000     0.0000     0.0000     0.0000 </r>
        <r>    -5.5341     0.1022     0.0008     0.0017     0.0004     0.0000     0.0000     0.0000     0.0000     0.0000 </r>
        <r>    -5.4530     0.0967     0.0009     0.0018     0.0004     0.0000     0.0000     0.0000     0.0000     0.0000 </r>
        <r>    -5.3720     0.0898     0.0009     0.0020     0.0004     0.0000     0.0000     0.0000     0.0000     0.0000 </r>
        <r>    -5.2910     0.0863     0.0009     0.0021     0.0004     0.0000     0.0000     0.0000     0.0000     0.0000 </r>
        <r>    -5.2100     0.0832     0.0010     0.0021     0.0005     0.0000     0.0000     0.0000     0.0000     0.0000 </r>
        <r>    -5.1290     0.0765     0.0009     0.0023     0.0005     0.0000     0.0000     0.0000     0.0000     0.0000 </r>
        <r>    -5.0479     0.0793     0.0012     0.0023     0.0006     0.0000     0.0000     0.0000     0.0000     0.0000 </r>
        <r>    -4.9669     0.0713     0.0011     0.0023     0.0005     0.0000     0.0000     0.0000     0.0000     0.0000 </r>
        <r>    -4.8859     0.0720     0.0010     0.0027     0.0006     0.0000     0.0000     0.0000     0.0000     0.0000 </r>
        <r>    -4.8049     0.0713     0.0013     0.0024     0.0006     0.0000     0.0000     0.0000     0.0000     0.0000 </r>
        <r>    -4.7238     0.0655     0.0012     0.0026     0.0006     0.0000     0.0000     0.0000     0.0000     0.0000 </r>
        <r>    -4.6428     0.0701     0.0010     0.0032     0.0007     0.0000     0.0000     0.0000     0.0000     0.0000 </r>
        <r>    -4.5618     0.0630     0.0013     0.0026     0.0006     0.0000     0.0000     0.0000     0.0000     0.0000 </r>
        <r>    -4.4808     0.0666     0.0015     0.0027     0.0008     0.0000     0.0000     0.0000     0.0000     0.0000 </r>
        <r>    -4.3998     0.0650     0.0010     0.0035     0.0007     0.0000     0.0000     0.0000     0.0000     0.0000 </r>
        <r>    -4.3187     0.0623     0.0012     0.0031     0.0007     0.0000     0.0000     0.0000     0.0000     0.0000 </r>
        <r>    -4.2377     0.0674     0.0018     0.0026     0.0009     0.0000     0.0000     0.0000     0.0000     0.0000 </r>
        <r>    -4.1567     0.0609     0.0013     0.0032     0.0008     0.0000     0.0000     0.0000     0.0000     0.0000 </r>
        <r>    -4.0757     0.0693     0.0011     0.0041     0.0009     0.0000     0.0000     0.0000     0.0000     0.0000 </r>
        <r>    -3.9947     0.0717     0.0018     0.0032     0.0011     0.0000     0.0000     0.0000     0.0000     0.0000 </r>
        <r>    -3.9136     0.0778     0.0021     0.0029     0.0013     0.0000     0.0000     0.0000     0.0000     0.0000 </r>
        <r>    -3.8326     0.0941     0.0018     0.0043     0.0015     0.0000     0.0000     0.0000     0.0000     0.0000 </r>
        <r>    -3.7516     0.0970     0.0018     0.0050     0.0015     0.0000     0.0000     0.0000     0.0000     0.0000 </r>
        <r>    -3.6706     0.0607     0.0017     0.0030     0.0010     0.0000     0.0000     0.0000     0.0000     0.0000 </r>
        <r>    -3.5895     0.0287     0.0010     0.0017     0.0005     0.0000     0.0000     0.0000     0.0000     0.0000 </r>
        <r>    -3.5085     0.0268     0.0003     0.0031     0.0002     0.0000     0.0000     0.0000     0.0000     0.0000 </r>
        <r>    -3.4275     0.0441     0.0008     0.0046     0.0005     0.0000     0.0000     0.0000     0.0000     0.0000 </r>
        <r>    -3.3465     0.0398     0.0012     0.0029     0.0008     0.0000     0.0000     0.0000     0.0000     0.0000 </r>
        <r>    -3.2655     0.0183     0.0006     0.0012     0.0004     0.0000     0.0000     0.0000     0.0000     0.0000 </r>
        <r>    -3.1844     0.0233     0.0004     0.0026     0.0004     0.0000     0.0000     0.0000     0.0000     0.0000 </r>
        <r>    -3.1034     0.0518     0.0010     0.0055     0.0010     0.0000     0.0000     0.0000     0.0000     0.0000 </r>
        <r>    -3.0224     0.0412     0.0010     0.0038     0.0010     0.0000     0.0000     0.0000     0.0000     0.0000 </r>
        <r>    -2.9414     0.0151     0.0005     0.0011     0.0006     0.0000     0.0000     0.0000     0.0000     0.0000 </r>
        <r>    -2.8604     0.0261     0.0008     0.0018     0.0012     0.0000     0.0000     0.0000     0.0000     0.0000 </r>
        <r>    -2.7793     0.0494     0.0010     0.0050     0.0017     0.0000     0.0000     0.0000     0.0000     0.0000 </r>
        <r>    -2.6983     0.0415     0.0006     0.0052     0.0011     0.0000     0.0000     0.0000     0.0000     0.0000 </r>
        <r>    -2.6173     0.0312     0.0007     0.0024     0.0018     0.0000     0.0000     0.0000     0.0000     0.0000 </r>
        <r>    -2.5363     0.0332     0.0009     0.0015     0.0025     0.0000     0.0000     0.0000     0.0000     0.0000 </r>
        <r>    -2.4552     0.0485     0.0010     0.0043     0.0026     0.0000     0.0000     0.0000     0.0000     0.0000 </r>
        <r>    -2.3742     0.1090     0.0019     0.0123     0.0044     0.0000     0.0000     0.0000     0.0000     0.0000 </r>
        <r>    -2.2932     0.1365     0.0023     0.0170     0.0040     0.0000     0.0000     0.0000     0.0000     0.0000 </r>
        <r>    -2.2122     0.1352     0.0020     0.0193     0.0024     0.0000     0.0000     0.0000     0.0000     0.0000 </r>
        <r>    -2.1312     0.1797     0.0018     0.0309     0.0018     0.0000     0.0000     0.0000     0.0000     0.0000 </r>
        <r>    -2.0501     0.3337     0.0014     0.0690     0.0014     0.0000     0.0000     0.0000     0.0000     0.0000 </r>
        <r>    -1.9691     0.5281     0.0010     0.1192     0.0010     0.0000     0.0000     0.0000     0.0000     0.0000 </r>
        <r>    -1.8881     0.4406     0.0009     0.1028     0.0009     0.0000     0.0000     0.0000     0.0000     0.0000 </r>
        <r>    -1.8071     0.2265     0.0011     0.0538     0.0011     0.0000     0.0000     0.0000     0.0000     0.0000 </r>
        <r>    -1.7261     0.1381     0.0014     0.0331     0.0014     0.0000     0.0000     0.0000     0.0000     0.0000 </r>
        <r>    -1.6450     0.1178     0.0016     0.0286     0.0016     0.0000     0.0000     0.0000     0.0000     0.0000 </r>
        <r>    -1.5640     0.1193     0.0019     0.0293     0.0020     0.0000     0.0000     0.0000     0.0000     0.0000 </r>
        <r>    -1.4830     0.1117     0.0022     0.0264     0.0033     0.0000     0.0000     0.0000     0.0000     0.0000 </r>
        <r>    -1.4020     0.0952     0.0025     0.0190     0.0067     0.0000     0.0000     0.0000     0.0000     0.0000 </r>
        <r>    -1.3209     0.0635     0.0020     0.0103     0.0071     0.0000     0.0000     0.0000     0.0000     0.0000 </r>
        <r>    -1.2399     0.0367     0.0019     0.0052     0.0060     0.0000     0.0000     0.0000     0.0000     0.0000 </r>
        <r>    -1.1589     0.0579     0.0053     0.0111     0.0104     0.0000     0.0000     0.0000     0.0000     0.0000 </r>
        <r>    -1.0779     0.0666     0.0088     0.0160     0.0123     0.0000     0.0000     0.0000     0.0000     0.0000 </r>
        <r>    -0.9969     0.0476     0.0075     0.0104     0.0109     0.0000     0.0000     0.0000     0.0000     0.0000 </r>
        <r>    -0.9158     0.0412     0.0064     0.0068     0.0110     0.0000     0.0000     0.0000     0.0000     0.0000 </r>
        <r>    -0.8348     0.0272     0.0045     0.0051     0.0071     0.0000     0.0000     0.0000     0.0000     0.0000 </r>
        <r>    -0.7538     0.0324     0.0032     0.0070     0.0056     0.0000     0.0000     0.0000     0.0000     0.0000 </r>
        <r>    -0.6728     0.0607     0.0056     0.0137     0.0097     0.0000     0.0000     0.0000     0.0000     0.0000 </r>
        <r>    -0.5918     0.0423     0.0046     0.0099     0.0072     0.0000     0.0000     0.0000     0.0000     0.0000 </r>
        <r>    -0.5107     0.0148     0.0019     0.0029     0.0031     0.0000     0.0000     0.0000     0.0000     0.0000 </r>
        <r>    -0.4297     0.0251     0.0036     0.0038     0.0066     0.0000     0.0000     0.0000     0.0000     0.0000 </r>
        <r>    -0.3487     0.0392     0.0061     0.0078     0.0095     0.0000     0.0000     0.0000     0.0000     0.0000 </r>
        <r>    -0.2677     0.0362     0.0037     0.0105     0.0049     0.0000     0.0000     0.0000     0.0000     0.0000 </r>
        <r>    -0.1866     0.0322     0.0015     0.0098     0.0024     0.0000     0.0000     0.0000     0.0000     0.0000 </r>
        <r>    -0.1056     0.0315     0.0033     0.0065     0.0060     0.0000     0.0000     0.0000     0.0000     0.0000 </r>
        <r>    -0.0246     0.0318     0.0059     0.0063     0.0086     0.0000     0.0000     0.0000     0.0000     0.0000 </r>
        <r>     0.0564     0.0195     0.0046     0.0050     0.0055     0.0000     0.0000     0.0000     0.0000     0.0000 </r>
        <r>     0.1374     0.0169     0.0019     0.0053     0.0024     0.0000     0.0000     0.0000     0.0000     0.0000 </r>
        <r>     0.2185     0.0393     0.0025     0.0115     0.0044     0.0000     0.0000     0.0000     0.0000     0.0000 </r>
        <r>     0.2995     0.0436     0.0044     0.0118     0.0069     0.0000     0.0000     0.0000     0.0000     0.0000 </r>
        <r>     0.3805     0.0258     0.0055     0.0073     0.0064     0.0000     0.0000     0.0000     0.0000     0.0000 </r>
        <r>     0.4615     0.0130     0.0038     0.0040     0.0040     0.0000     0.0000     0.0000     0.0000     0.0000 </r>
        <r>     0.5425     0.0127     0.0022     0.0031     0.0030     0.0000     0.0000     0.0000     0.0000     0.0000 </r>
        <r>     0.6236     0.0322     0.0034     0.0088     0.0053     0.0000     0.0000     0.0000     0.0000     0.0000 </r>
        <r>     0.7046     0.0421     0.0038     0.0143     0.0052     0.0000     0.0000     0.0000     0.0000     0.0000 </r>
        <r>     0.7856     0.0298     0.0049     0.0111     0.0052     0.0000     0.0000     0.0000     0.0000     0.0000 </r>
        <r>     0.8666     0.0155     0.0043     0.0054     0.0044     0.0000     0.0000     0.0000     0.0000     0.0000 </r>
        <r>     0.9477     0.0127     0.0030     0.0031     0.0036     0.0000     0.0000     0.0000     0.0000     0.0000 </r>
[...]
       </set>
       <set comment="band 5">
        <r>  0.0836  0.0008  0.0008  0.0816  0.0000  0.0000  0.0000  0.0000  0.0000 </r>
        <r>  0.0836  0.0008  0.0008  0.0816  0.0000  0.0000  0.0000  0.0000  0.0000 </r>
       </set>
       <set comment="band 6">
        <r>  0.0000  0.0758  0.0758  0.0000  0.0000  0.0000  0.0000  0.0000  0.0000 </r>
        <r>  0.0000  0.0758  0.0758  0.0000  0.0000  0.0000  0.0000  0.0000  0.0000 </r>
       </set>
       <set comment="band 7">
        <r>  0.0318  0.0050  0.0050  0.1083  0.0000  0.0000  0.0000  0.0000  0.0000 </r>
        <r>  0.0318  0.0050  0.0050  0.1083  0.0000  0.0000  0.0000  0.0000  0.0000 </r>
       </set>
       <set comment="band 8">
        <r>  0.0713  0.0454  0.0454  0.0084  0.0000  0.0000  0.0000  0.0000  0.0000 </r>
        <r>  0.0713  0.0454  0.0454  0.0084  0.0000  0.0000  0.0000  0.0000  0.0000 </r>
       </set>
      </set>
      <set comment="kpoint 71">
       <set comment="band 1">
        <r>  0.2106  0.0054  0.0054  0.0004  0.0000  0.0000  0.0000  0.0000  0.0000 </r>
        <r>  0.2106  0.0054  0.0054  0.0004  0.0000  0.0000  0.0000  0.0000  0.0000 </r>
       </set>
       <set comment="band 2">
        <r>  0.1276  0.0374  0.0374  0.0357  0.0000  0.0000  0.0000  0.0000  0.0000 </r>
        <r>  0.1276  0.0374  0.0374  0.0357  0.0000  0.0000  0.0000  0.0000  0.0000 </r>
       </set>
       <set comment="band 3">
        <r>  0.0124  0.0336  0.0336  0.1026  0.0000  0.0000  0.0000  0.0000  0.0000 </r>
        <r>  0.0124  0.0336  0.0336  0.1026  0.0000  0.0000  0.0000  0.0000  0.0000 </r>
       </set>
       <set comment="band 4">
        <r>  0.0000  0.1114  0.1114  0.0000  0.0000  0.0000  0.0000  0.0000  0.0000 </r>
        <r>  0.0000  0.1114  0.1114  0.0000  0.0000  0.0000  0.0000  0.0000  0.0000 </r>
       </set>
       <set comment="band 5">
        <r>  0.0920  0.0005  0.0005  0.0892  0.0000  0.0000  0.0000  0.0000  0.0000 </r>
        <r>  0.0920  0.0005  0.0005  0.0892  0.0000  0.0000  0.0000  0.0000  0.0000 </r>
       </set>
       <set comment="band 6">
        <r>  0.0000  0.0760  0.0760  0.0000  0.0000  0.0000  0.0000  0.0000  0.0000 </r>
        <r>  0.0000  0.0760  0.0760  0.0000  0.0000  0.0000  0.0000  0.0000  0.0000 </r>
       </set>
       <set comment="band 7">
        <r>  0.0310  0.0080  0.0080  0.1061  0.0000  0.0000  0.0000  0.0000  0.0000 </r>
        <r>  0.0310  0.0080  0.0080  0.1061  0.0000  0.0000  0.0000  0.0000  0.0000 </r>
       </set>
       <set comment="band 8">
        <r>  0.0704  0.0463  0.0463  0.0030  0.0000  0.0000  0.0000  0.0000  0.0000 </r>
        <r>  0.0704  0.0463  0.0463  0.0030  0.0000  0.0000  0.0000  0.0000  0.0000 </r>
       </set>
      </set>
      <set comment="kpoint 72">
       <set comment="band 1">
        <r>  0.2112  0.0044  0.0044  0.0002  0.0000  0.0000  0.0000  0.0000  0.0000 </r>
        <r>  0.2112  0.0044  0.0044  0.0002  0.0000  0.0000  0.0000  0.0000  0.0000 </r>
       </set>
       <set comment="band 2">
        <r>  0.1189  0.0423  0.0423  0.0342  0.0000  0.0000  0.0000  0.0000  0.0000 </r>
        <r>  0.1189  0.0423  0.0423  0.0342  0.0000  0.0000  0.0000  0.0000  0.0000 </r>
       </set>
       <set comment="band 3">
        <r>  0.0108  0.0325  0.0325  0.1103  0.0000  0.0000  0.0000  0.0000  0.0000 </r>
        <r>  0.0108  0.0325  0.0325  0.1103  0.0000  0.0000  0.0000  0.0000  0.0000 </r>
       </set>
       <set comment="band 4">
        <r>  0.0000  0.1120  0.1120  0.0000  0.0000  0.0000  0.0000  0.0000  0.0000 </r>
        <r>  0.0000  0.1120  0.1120  0.0000  0.0000  0.0000  0.0000  0.0000  0.0000 </r>
       </set>
       <set comment="band 5">
        <r>  0.0991  0.0003  0.0003  0.0953  0.0000  0.0000  0.0000  0.0000  0.0000 </r>
        <r>  0.0991  0.0003  0.0003  0.0953  0.0000  0.0000  0.0000  0.0000  0.0000 </r>
       </set>
       <set comment="band 6">
        <r>  0.0000  0.0760  0.0760  0.0000  0.0000  0.0000  0.0000  0.0000  0.0000 </r>
        <r>  0.0000  0.0760  0.0760  0.0000  0.0000  0.0000  0.0000  0.0000  0.0000 </r>
       </set>
       <set comment="band 7">
        <r>  0.0297  0.0120  0.0120  0.1008  0.0000  0.0000  0.0000  0.0000  0.0000 </r>
        <r>  0.0297  0.0120  0.0120  0.1008  0.0000  0.0000  0.0000  0.0000  0.0000 </r>
       </set>
       <set comment="band 8">
        <r>  0.0743  0.0486  0.0486  0.0002  0.0000  0.0000  0.0000  0.0000  0.0000 </r>
        <r>  0.0743  0.0486  0.0486  0.0002  0.0000  0.0000  0.0000  0.0000  0.0000 </r>
       </set>
      </set>
      <set comment="kpoint 73">
       <set comment="band 1">
        <r>  0.2119  0.0034  0.0034  0.0001  0.0000  0.0000  0.0000  0.0000  0.0000 </r>
        <r>  0.2119  0.0034  0.0034  0.0001  0.0000  0.0000  0.0000  0.0000  0.0000 </r>
       </set>
       <set comment="band 2">
        <r>  0.1089  0.0477  0.0477  0.0323  0.0000  0.0000  0.0000  0.0000  0.0000 </r>
        <r>  0.1089  0.0477  0.0477  0.0323  0.0000  0.0000  0.0000  0.0000  0.0000 </r>
       </set>
       <set comment="band 3">
        <r>  0.0088  0.0309  0.0309  0.1193  0.0000  0.0000  0.0000  0.0000  0.0000 </r>
        <r>  0.0088  0.0309  0.0309  0.1193  0.0000  0.0000  0.0000  0.0000  0.0000 </r>
       </set>
       <set comment="band 4">
        <r>  0.0000  0.1122  0.1122  0.0000  0.0000  0.0000  0.0000  0.0000  0.0000 </r>
        <r>  0.0000  0.1122  0.1122  0.0000  0.0000  0.0000  0.0000  0.0000  0.0000 </r>
       </set>
       <set comment="band 5">
        <r>  0.1037  0.0002  0.0002  0.0997  0.0000  0.0000  0.0000  0.0000  0.0000 </r>
        <r>  0.1037  0.0002  0.0002  0.0997  0.0000  0.0000  0.0000  0.0000  0.0000 </r>
       </set>
       <set comment="band 6">
        <r>  0.0000  0.0762  0.0762  0.0000  0.0000  0.0000  0.0000  0.0000  0.0000 </r>
        <r>  0.0000  0.0762  0.0762  0.0000  0.0000  0.0000  0.0000  0.0000  0.0000 </r>
       </set>
       <set comment="band 7">
        <r>  0.0274  0.0172  0.0172  0.0948  0.0000  0.0000  0.0000  0.0000  0.0000 </r>
        <r>  0.0274  0.0172  0.0172  0.0948  0.0000  0.0000  0.0000  0.0000  0.0000 </r>
       </set>
       <set comment="band 8">
        <r>  0.0882  0.0524  0.0524  0.0010  0.0000  0.0000  0.0000  0.0000  0.0000 </r>
        <r>  0.0882  0.0524  0.0524  0.0010  0.0000  0.0000  0.0000  0.0000  0.0000 </r>
       </set>
      </set>
      <set comment="kpoint 74">
       <set comment="band 1">
        <r>  0.2125  0.0026  0.0026  0.0001  0.0000  0.0000  0.0000  0.0000  0.0000 </r>
        <r>  0.2125  0.0026  0.0026  0.0001  0.0000  0.0000  0.0000  0.0000  0.0000 </r>
       </set>
       <set comment="band 2">
        <r>  0.0979  0.0537  0.0537  0.0300  0.0000  0.0000  0.0000  0.0000  0.0000 </r>
        <r>  0.0979  0.0537  0.0537  0.0300  0.0000  0.0000  0.0000  0.0000  0.0000 </r>
       </set>
       <set comment="band 3">
        <r>  0.0066  0.0285  0.0285  0.1303  0.0000  0.0000  0.0000  0.0000  0.0000 </r>
        <r>  0.0066  0.0285  0.0285  0.1303  0.0000  0.0000  0.0000  0.0000  0.0000 </r>
       </set>
       <set comment="band 4">
        <r>  0.0000  0.1123  0.1123  0.0000  0.0000  0.0000  0.0000  0.0000  0.0000 </r>
        <r>  0.0000  0.1123  0.1123  0.0000  0.0000  0.0000  0.0000  0.0000  0.0000 </r>
       </set>
       <set comment="band 5">
        <r>  0.1046  0.0002  0.0002  0.1030  0.0000  0.0000  0.0000  0.0000  0.0000 </r>
        <r>  0.1046  0.0002  0.0002  0.1030  0.0000  0.0000  0.0000  0.0000  0.0000 </r>
       </set>
       <set comment="band 6">
        <r>  0.0000  0.0763  0.0763  0.0000  0.0000  0.0000  0.0000  0.0000  0.0000 </r>
        <r>  0.0000  0.0763  0.0763  0.0000  0.0000  0.0000  0.0000  0.0000  0.0000 </r>
       </set>
       <set comment="band 7">
        <r>  0.0244  0.0235  0.0235  0.0857  0.0000  0.0000  0.0000  0.0000  0.0000 </r>
        <r>  0.0244  0.0235  0.0235  0.0857  0.0000  0.0000  0.0000  0.0000  0.0000 </r>
       </set>
       <set comment="band 8">
        <r>  0.1156  0.0555  0.0555  0.0057  0.0000  0.0000  0.0000  0.0000  0.0000 </r>
        <r>  0.1156  0.0555  0.0555  0.0057  0.0000  0.0000  0.0000  0.0000  0.0000 </r>
       </set>
      </set>
      <set comment="kpoint 75">
       <set comment="band 1">
        <r>  0.2132  0.0018  0.0018  0.0000  0.0000  0.0000  0.0000  0.0000  0.0000 </r>
        <r>  0.2132  0.0018  0.0018  0.0000  0.0000  0.0000  0.0000  0.0000  0.0000 </r>
       </set>
       <set comment="band 2">
        <r>  0.0852  0.0606  0.0606  0.0272  0.0000  0.0000  0.0000  0.0000  0.0000 </r>
        <r>  0.0852  0.0606  0.0606  0.0272  0.0000  0.0000  0.0000  0.0000  0.0000 </r>
       </set>
       <set comment="band 3">
        <r>  0.0045  0.0252  0.0252  0.1438  0.0000  0.0000  0.0000  0.0000  0.0000 </r>
        <r>  0.0045  0.0252  0.0252  0.1438  0.0000  0.0000  0.0000  0.0000  0.0000 </r>
       </set>
       <set comment="band 4">
        <r>  0.0000  0.1119  0.1119  0.0000  0.0000  0.0000  0.0000  0.0000  0.0000 </r>
        <r>  0.0000  0.1119  0.1119  0.0000  0.0000  0.0000  0.0000  0.0000  0.0000 </r>
       </set>
       <set comment="band 5">
        <r>  0.0000  0.0765  0.0765  0.0000  0.0000  0.0000  0.0000  0.0000  0.0000 </r>
        <r>  0.0000  0.0765  0.0765  0.0000  0.0000  0.0000  0.0000  0.0000  0.0000 </r>
       </set>
       <set comment="band 6">
        <r>  0.1004  0.0004  0.0004  0.1065  0.0000  0.0000  0.0000  0.0000  0.0000 </r>
        <r>  0.1004  0.0004  0.0004  0.1065  0.0000  0.0000  0.0000  0.0000  0.0000 </r>
       </set>
       <set comment="band 7">
        <r>  0.0205  0.0317  0.0317  0.0741  0.0000  0.0000  0.0000  0.0000  0.0000 </r>
        <r>  0.0205  0.0317  0.0317  0.0741  0.0000  0.0000  0.0000  0.0000  0.0000 </r>
       </set>
       <set comment="band 8">
        <r>  0.1521  0.0532  0.0532  0.0118  0.0000  0.0000  0.0000  0.0000  0.0000 </r>
        <r>  0.1521  0.0532  0.0532  0.0118  0.0000  0.0000  0.0000  0.0000  0.0000 </r>
       </set>
      </set>
      <set comment="kpoint 76">
       <set comment="band 1">
        <r>  0.2137  0.0012  0.0012  0.0000  0.0000  0.0000  0.0000  0.0000  0.0000 </r>
        <r>  0.2137  0.0012  0.0012  0.0000  0.0000  0.0000  0.0000  0.0000  0.0000 </r>
       </set>
       <set comment="band 2">
        <r>  0.0703  0.0686  0.0686  0.0236  0.0000  0.0000  0.0000  0.0000  0.0000 </r>
        <r>  0.0703  0.0686  0.0686  0.0236  0.0000  0.0000  0.0000  0.0000  0.0000 </r>
       </set>
       <set comment="band 3">
        <r>  0.0026  0.0206  0.0206  0.1600  0.0000  0.0000  0.0000  0.0000  0.0000 </r>
        <r>  0.0026  0.0206  0.0206  0.1600  0.0000  0.0000  0.0000  0.0000  0.0000 </r>
       </set>
       <set comment="band 4">
        <r>  0.0000  0.1113  0.1113  0.0000  0.0000  0.0000  0.0000  0.0000  0.0000 </r>
        <r>  0.0000  0.1113  0.1113  0.0000  0.0000  0.0000  0.0000  0.0000  0.0000 </r>
       </set>
       <set comment="band 5">
        <r>  0.0000  0.0767  0.0767  0.0000  0.0000  0.0000  0.0000  0.0000  0.0000 </r>
        <r>  0.0000  0.0767  0.0767  0.0000  0.0000  0.0000  0.0000  0.0000  0.0000 </r>
       </set>
       <set comment="band 6">
        <r>  0.0894  0.0009  0.0009  0.1117  0.0000  0.0000  0.0000  0.0000  0.0000 </r>
        <r>  0.0894  0.0009  0.0009  0.1117  0.0000  0.0000  0.0000  0.0000  0.0000 </r>
       </set>
       <set comment="band 7">
        <r>  0.0157  0.0416  0.0416  0.0590  0.0000  0.0000  0.0000  0.0000  0.0000 </r>
        <r>  0.0157  0.0416  0.0416  0.0590  0.0000  0.0000  0.0000  0.0000  0.0000 </r>
       </set>
       <set comment="band 8">
        <r>  0.1908  0.0444  0.0444  0.0149  0.0000  0.0000  0.0000  0.0000  0.0000 </r>
        <r>  0.1908  0.0444  0.0444  0.0149  0.0000  0.0000  0.0000  0.0000  0.0000 </r>
       </set>
      </set>
      <set comment="kpoint 77">
       <set comment="band 1">
        <r>  0.2142  0.0007  0.0007  0.0000  0.0000  0.0000  0.0000  0.0000  0.0000 </r>
        <r>  0.2142  0.0007  0.0007  0.0000  0.0000  0.0000  0.0000  0.0000  0.0000 </r>
       </set>
       <set comment="band 2">
        <r>  0.0526  0.0784  0.0784  0.0187  0.0000  0.0000  0.0000  0.0000  0.0000 </r>
        <r>  0.0526  0.0784  0.0784  0.0187  0.0000  0.0000  0.0000  0.0000  0.0000 </r>
       </set>
       <set comment="band 3">
        <r>  0.0011  0.0147  0.0147  0.1785  0.0000  0.0000  0.0000  0.0000  0.0000 </r>
        <r>  0.0011  0.0147  0.0147  0.1785  0.0000  0.0000  0.0000  0.0000  0.0000 </r>
       </set>
       <set comment="band 4">
        <r>  0.0000  0.1107  0.1107  0.0000  0.0000  0.0000  0.0000  0.0000  0.0000 </r>
        <r>  0.0000  0.1107  0.1107  0.0000  0.0000  0.0000  0.0000  0.0000  0.0000 </r>
       </set>
       <set comment="band 5">
        <r>  0.0000  0.0768  0.0768  0.0000  0.0000  0.0000  0.0000  0.0000  0.0000 </r>
        <r>  0.0000  0.0768  0.0768  0.0000  0.0000  0.0000  0.0000  0.0000  0.0000 </r>
       </set>
       <set comment="band 6">
        <r>  0.0104  0.0529  0.0529  0.0410  0.0000  0.0000  0.0000  0.0000  0.0000 </r>
        <r>  0.0104  0.0529  0.0529  0.0410  0.0000  0.0000  0.0000  0.0000  0.0000 </r>
       </set>
       <set comment="band 7">
        <r>  0.0671  0.0019  0.0019  0.1204  0.0000  0.0000  0.0000  0.0000  0.0000 </r>
        <r>  0.0671  0.0019  0.0019  0.1204  0.0000  0.0000  0.0000  0.0000  0.0000 </r>
       </set>
       <set comment="band 8">
        <r>  0.2369  0.0320  0.0320  0.0133  0.0000  0.0000  0.0000  0.0000  0.0000 </r>
        <r>  0.2369  0.0320  0.0320  0.0133  0.0000  0.0000  0.0000  0.0000  0.0000 </r>
       </set>
      </set>
      <set comment="kpoint 78">
       <set comment="band 1">
        <r>  0.2146  0.0003  0.0003  0.0000  0.0000  0.0000  0.0000  0.0000  0.0000 </r>
        <r>  0.2146  0.0003  0.0003  0.0000  0.0000  0.0000  0.0000  0.0000  0.0000 </r>
       </set>
       <set comment="band 2">
        <r>  0.0318  0.0904  0.0904  0.0120  0.0000  0.0000  0.0000  0.0000  0.0000 </r>
        <r>  0.0318  0.0904  0.0904  0.0120  0.0000  0.0000  0.0000  0.0000  0.0000 </r>
       </set>
       <set comment="band 3">
        <r>  0.0003  0.0080  0.0080  0.1976  0.0000  0.0000  0.0000  0.0000  0.0000 </r>
        <r>  0.0003  0.0080  0.0080  0.1976  0.0000  0.0000  0.0000  0.0000  0.0000 </r>
       </set>
       <set comment="band 4">
        <r>  0.0000  0.1102  0.1102  0.0000  0.0000  0.0000  0.0000  0.0000  0.0000 </r>
        <r>  0.0000  0.1102  0.1102  0.0000  0.0000  0.0000  0.0000  0.0000  0.0000 </r>
       </set>
       <set comment="band 5">
        <r>  0.0000  0.0769  0.0769  0.0000  0.0000  0.0000  0.0000  0.0000  0.0000 </r>
        <r>  0.0000  0.0769  0.0769  0.0000  0.0000  0.0000  0.0000  0.0000  0.0000 </r>
       </set>
       <set comment="band 6">
        <r>  0.0053  0.0643  0.0643  0.0220  0.0000  0.0000  0.0000  0.0000  0.0000 </r>
        <r>  0.0053  0.0643  0.0643  0.0220  0.0000  0.0000  0.0000  0.0000  0.0000 </r>
       </set>
       <set comment="band 7">
        <r>  0.0319  0.0031  0.0031  0.1345  0.0000  0.0000  0.0000  0.0000  0.0000 </r>
        <r>  0.0319  0.0031  0.0031  0.1345  0.0000  0.0000  0.0000  0.0000  0.0000 </r>
       </set>
       <set comment="band 8">
        <r>  0.2957  0.0173  0.0173  0.0069  0.0000  0.0000  0.0000  0.0000  0.0000 </r>
        <r>  0.2957  0.0173  0.0173  0.0069  0.0000  0.0000  0.0000  0.0000  0.0000 </r>
       </set>
      </set>
      <set comment="kpoint 79">
       <set comment="band 1">
        <r>  0.2148  0.0001  0.0001  0.0000  0.0000  0.0000  0.0000  0.0000  0.0000 </r>
        <r>  0.2148  0.0001  0.0001  0.0000  0.0000  0.0000  0.0000  0.0000  0.0000 </r>
       </set>
       <set comment="band 2">
        <r>  0.0105  0.1032  0.1032  0.0043  0.0000  0.0000  0.0000  0.0000  0.0000 </r>
        <r>  0.0105  0.1032  0.1032  0.0043  0.0000  0.0000  0.0000  0.0000  0.0000 </r>
       </set>
       <set comment="band 3">
        <r>  0.0000  0.0023  0.0023  0.2133  0.0000  0.0000  0.0000  0.0000  0.0000 </r>
        <r>  0.0000  0.0023  0.0023  0.2133  0.0000  0.0000  0.0000  0.0000  0.0000 </r>
       </set>
       <set comment="band 4">
        <r>  0.0000  0.1099  0.1099  0.0000  0.0000  0.0000  0.0000  0.0000  0.0000 </r>
        <r>  0.0000  0.1099  0.1099  0.0000  0.0000  0.0000  0.0000  0.0000  0.0000 </r>
       </set>
       <set comment="band 5">
        <r>  0.0000  0.0770  0.0770  0.0000  0.0000  0.0000  0.0000  0.0000  0.0000 </r>
        <r>  0.0000  0.0770  0.0770  0.0000  0.0000  0.0000  0.0000  0.0000  0.0000 </r>
       </set>
       <set comment="band 6">
        <r>  0.0015  0.0734  0.0734  0.0063  0.0000  0.0000  0.0000  0.0000  0.0000 </r>
        <r>  0.0015  0.0734  0.0734  0.0063  0.0000  0.0000  0.0000  0.0000  0.0000 </r>
       </set>
       <set comment="band 7">
        <r>  0.0038  0.0022  0.0022  0.1488  0.0000  0.0000  0.0000  0.0000  0.0000 </r>
        <r>  0.0038  0.0022  0.0022  0.1488  0.0000  0.0000  0.0000  0.0000  0.0000 </r>
       </set>
       <set comment="band 8">
        <r>  0.3463  0.0046  0.0046  0.0008  0.0000  0.0000  0.0000  0.0000  0.0000 </r>
        <r>  0.3463  0.0046  0.0046  0.0008  0.0000  0.0000  0.0000  0.0000  0.0000 </r>
       </set>
      </set>
      <set comment="kpoint 80">
       <set comment="band 1">
        <r>  0.2149  0.0000  0.0000  0.0000  0.0000  0.0000  0.0000  0.0000  0.0000 </r>
        <r>  0.2149  0.0000  0.0000  0.0000  0.0000  0.0000  0.0000  0.0000  0.0000 </r>
       </set>
       <set comment="band 2">
        <r>  0.0000  0.0730  0.0733  0.0733  0.0000  0.0000  0.0000  0.0000  0.0000 </r>
        <r>  0.0000  0.0730  0.0733  0.0733  0.0000  0.0000  0.0000  0.0000  0.0000 </r>
       </set>
       <set comment="band 3">
        <r>  0.0000  0.1465  0.0365  0.0365  0.0000  0.0000  0.0000  0.0000  0.0000 </r>
        <r>  0.0000  0.1465  0.0365  0.0365  0.0000  0.0000  0.0000  0.0000  0.0000 </r>
       </set>
       <set comment="band 4">
        <r>  0.0000  0.0000  0.1097  0.1098  0.0000  0.0000  0.0000  0.0000  0.0000 </r>
        <r>  0.0000  0.0000  0.1097  0.1098  0.0000  0.0000  0.0000  0.0000  0.0000 </r>
       </set>
       <set comment="band 5">
        <r>  0.0000  0.0515  0.0512  0.0512  0.0000  0.0000  0.0000  0.0000  0.0000 </r>
        <r>  0.0000  0.0515  0.0512  0.0512  0.0000  0.0000  0.0000  0.0000  0.0000 </r>
       </set>
       <set comment="band 6">
        <r>  0.0000  0.0000  0.0781  0.0759  0.0000  0.0000  0.0000  0.0000  0.0000 </r>
        <r>  0.0000  0.0000  0.0781  0.0759  0.0000  0.0000  0.0000  0.0000  0.0000 </r>
       </set>
       <set comment="band 7">
        <r>  0.0000  0.1024  0.0247  0.0269  0.0000  0.0000  0.0000  0.0000  0.0000 </r>
        <r>  0.0000  0.1024  0.0247  0.0269  0.0000  0.0000  0.0000  0.0000  0.0000 </r>
       </set>
       <set comment="band 8">
        <r>  0.3610  0.0000  0.0000  0.0000  0.0000  0.0000  0.0000  0.0000  0.0000 </r>
        <r>  0.3610  0.0000  0.0000  0.0000  0.0000  0.0000  0.0000  0.0000  0.0000 </r>
       </set>
      </set>
     </set>
    </set>
   </array>
  </projected>
 </calculation>
 <structure name="finalpos" >
  <crystal>
   <varray name="basis" >
    <v>       2.71500000       2.71500000       0.00000000 </v>
    <v>       0.00000000       2.71500000       2.71500000 </v>
    <v>       2.71500000       0.00000000       2.71500000 </v>
   </varray>
   <i name="volume">     40.02575175 </i>
   <varray name="rec_basis" >
    <v>       0.18416206       0.18416206      -0.18416206 </v>
    <v>      -0.18416206       0.18416206       0.18416206 </v>
    <v>       0.18416206      -0.18416206       0.18416206 </v>
   </varray>
  </crystal>
  <varray name="positions" >
   <v>       0.00000000       0.00000000       0.00000000 </v>
   <v>       0.25000000       0.25000000       0.25000000 </v>
  </varray>
 </structure>
</modeling>
